    4    4  800    2
  0.3496991E+03  0.8352722E-09  0.8338707E-09  0.2008562E-08  0.5000000E-15
  1.000000000000000E-004
  CAR 
 unknown system                          
     29      8     20
 
  0.1250000E+00  0.1250000E+00  0.4336809E-18  0.1250000E+00
    1      -20.626299    -20.589073
    2      -20.416935    -20.376814
    3      -20.412820    -20.372889
    4      -10.295552    -10.188408
    5      -10.287787    -10.182593
    6      -10.149140    -10.114562
    7       -9.090949     -8.906023
    8       -9.088272     -8.902812
    9       -8.426495     -8.291366
   10       -8.384243     -8.283595
   11       -8.381933     -8.282171
   12       -7.895169     -7.891101
   13       -5.522685     -5.061268
   14       -5.515033     -4.934144
   15       -5.380675     -4.929633
   16       -4.589119     -4.339739
   17       -4.584735     -4.334288
   18       -0.874466     -0.797157
   19        0.197996      0.267995
   20        0.749625      0.726597
 
  0.3750000E+00  0.1250000E+00 -0.2168404E-18  0.1250000E+00
    1      -20.626037    -20.588809
    2      -20.416781    -20.376659
    3      -20.413256    -20.373328
    4      -10.295329    -10.189799
    5      -10.293199    -10.186815
    6      -10.144246    -10.109467
    7       -9.090305     -8.904952
    8       -9.086981     -8.900485
    9       -8.424113     -8.288700
   10       -8.383374     -8.283849
   11       -8.380537     -8.281465
   12       -7.899558     -7.895502
   13       -5.519665     -5.060258
   14       -5.517139     -4.932465
   15       -5.379767     -4.930669
   16       -4.606041     -4.355901
   17       -4.586415     -4.336608
   18       -0.758365     -0.660141
   19        0.231718      0.244623
   20        0.482595      0.512590
 
 -0.3750000E+00  0.1250000E+00  0.0000000E+00  0.1250000E+00
    1      -20.626037    -20.588809
    2      -20.416781    -20.376660
    3      -20.413257    -20.373329
    4      -10.295352    -10.189818
    5      -10.293177    -10.186796
    6      -10.144246    -10.109467
    7       -9.090316     -8.904963
    8       -9.086969     -8.900473
    9       -8.424115     -8.288708
   10       -8.383374     -8.283852
   11       -8.380536     -8.281454
   12       -7.899560     -7.895504
   13       -5.519676     -5.060259
   14       -5.517128     -4.932460
   15       -5.379767     -4.930672
   16       -4.606044     -4.355907
   17       -4.586414     -4.336605
   18       -0.758365     -0.660150
   19        0.231565      0.244525
   20        0.482871      0.512834
 
 -0.1250000E+00  0.1250000E+00  0.1301043E-17  0.1250000E+00
    1      -20.626300    -20.589073
    2      -20.416935    -20.376815
    3      -20.412821    -20.372889
    4      -10.295559    -10.188419
    5      -10.287781    -10.182582
    6      -10.149141    -10.114564
    7       -9.090965     -8.906041
    8       -9.088257     -8.902795
    9       -8.426497     -8.291373
   10       -8.384241     -8.283593
   11       -8.381933     -8.282166
   12       -7.895170     -7.891102
   13       -5.522688     -5.061268
   14       -5.515028     -4.934142
   15       -5.380675     -4.929634
   16       -4.589114     -4.339748
   17       -4.584742     -4.334281
   18       -0.874466     -0.797162
   19        0.197963      0.267968
   20        0.749433      0.726622
 
  0.1250000E+00  0.3750000E+00  0.1734723E-17  0.1250000E+00
    1      -20.626222    -20.588995
    2      -20.417017    -20.376897
    3      -20.412816    -20.372885
    4      -10.297674    -10.190650
    5      -10.287689    -10.182522
    6      -10.148419    -10.113797
    7       -9.089868     -8.904583
    8       -9.088300     -8.902664
    9       -8.425989     -8.291261
   10       -8.383003     -8.283063
   11       -8.382772     -8.282465
   12       -7.893195     -7.889119
   13       -5.521921     -5.061019
   14       -5.515702     -4.934425
   15       -5.380443     -4.930602
   16       -4.596738     -4.345939
   17       -4.584819     -4.334344
   18       -0.762455     -0.665922
   19        0.207987      0.229177
   20        0.495898      0.522714
 
  0.3750000E+00  0.3750000E+00  0.8673617E-18  0.1250000E+00
    1      -20.625956    -20.588727
    2      -20.416866    -20.376746
    3      -20.413259    -20.373331
    4      -10.296994    -10.190449
    5      -10.293551    -10.188339
    6      -10.143503    -10.108667
    7       -9.090863     -8.905863
    8       -9.085393     -8.898011
    9       -8.423571     -8.288518
   10       -8.384226     -8.284373
   11       -8.379321     -8.280777
   12       -7.897575     -7.893511
   13       -5.519024     -5.060020
   14       -5.517685     -4.933443
   15       -5.379542     -4.930930
   16       -4.605852     -4.355573
   17       -4.593980     -4.342831
   18       -0.661338     -0.544307
   19        0.324436      0.338238
   20        0.512234      0.512113
 
 -0.3750000E+00  0.3750000E+00  0.1734723E-17  0.1250000E+00
    1      -20.625957    -20.588728
    2      -20.416866    -20.376746
    3      -20.413259    -20.373331
    4      -10.297010    -10.190477
    5      -10.293539    -10.188315
    6      -10.143506    -10.108670
    7       -9.090872     -8.905872
    8       -9.085386     -8.898004
    9       -8.423575     -8.288526
   10       -8.384229     -8.284381
   11       -8.379321     -8.280768
   12       -7.897576     -7.893512
   13       -5.519045     -5.060021
   14       -5.517667     -4.933442
   15       -5.379542     -4.930932
   16       -4.605858     -4.355585
   17       -4.593979     -4.342824
   18       -0.661336     -0.544315
   19        0.323958      0.337739
   20        0.512834      0.512880
 
 -0.1250000E+00  0.3750000E+00  0.3469447E-17  0.1250000E+00
    1      -20.626222    -20.588995
    2      -20.417016    -20.376897
    3      -20.412816    -20.372884
    4      -10.297680    -10.190658
    5      -10.287683    -10.182513
    6      -10.148418    -10.113796
    7       -9.089894     -8.904611
    8       -9.088273     -8.902635
    9       -8.425991     -8.291267
   10       -8.383004     -8.283078
   11       -8.382767     -8.282442
   12       -7.893195     -7.889119
   13       -5.521925     -5.061019
   14       -5.515698     -4.934423
   15       -5.380443     -4.930603
   16       -4.596739     -4.345947
   17       -4.584820     -4.334340
   18       -0.762455     -0.665931
   19        0.207916      0.229141
   20        0.495946      0.522788
