       N       E                     dE             d eps       ncg     rms          rms(c)
DAV:   1     0.225086071927E+03    0.22509E+03   -0.68377E+03   752   0.845E+02
DAV:   2     0.586275406333E+02   -0.16646E+03   -0.16001E+03  1116   0.135E+02
DAV:   3    -0.962759976605E+01   -0.68255E+02   -0.66707E+02   860   0.922E+01
DAV:   4    -0.141593856631E+02   -0.45318E+01   -0.43636E+01   668   0.297E+01
DAV:   5    -0.142600894531E+02   -0.10070E+00   -0.97865E-01   808   0.457E+00    0.129E+01
RMM:   6    -0.841943692760E+01    0.58407E+01   -0.19167E+01   640   0.214E+01    0.136E+01
RMM:   7    -0.819009500373E+01    0.22934E+00   -0.31340E+00   640   0.924E+00    0.579E+00
RMM:   8    -0.874224013990E+01   -0.55215E+00   -0.10931E+00   640   0.495E+00    0.209E+00
RMM:   9    -0.964874106845E+01   -0.90650E+00   -0.27234E-01   646   0.242E+00    0.120E+00
RMM:  10    -0.102127003762E+02   -0.56396E+00   -0.12282E-01   640   0.161E+00    0.730E-01
RMM:  11    -0.106139998217E+02   -0.40130E+00   -0.74261E-02   640   0.124E+00    0.598E-01
RMM:  12    -0.108256051932E+02   -0.21161E+00   -0.26326E-02   640   0.708E-01    0.586E-01
RMM:  13    -0.109738087008E+02   -0.14820E+00   -0.12861E-02   640   0.532E-01    0.500E-01
RMM:  14    -0.113138039589E+02   -0.34000E+00   -0.45079E-02   640   0.978E-01    0.340E-01
RMM:  15    -0.115451065991E+02   -0.23130E+00   -0.33711E-02   640   0.782E-01    0.257E-01
RMM:  16    -0.118409417301E+02   -0.29584E+00   -0.60670E-02   640   0.922E-01    0.186E-01
RMM:  17    -0.119673403822E+02   -0.12640E+00   -0.18536E-02   612   0.411E-01    0.153E-01
RMM:  18    -0.120641701024E+02   -0.96830E-01   -0.77774E-03   592   0.325E-01    0.139E-01
RMM:  19    -0.120823178395E+02   -0.18148E-01   -0.23736E-03   524   0.172E-01    0.961E-02
RMM:  20    -0.120975371169E+02   -0.15219E-01   -0.15913E-03   524   0.162E-01    0.442E-02
RMM:  21    -0.121061511936E+02   -0.86141E-02   -0.11927E-03   508   0.129E-01    0.322E-02
RMM:  22    -0.121087652003E+02   -0.26140E-02   -0.48596E-04   455   0.870E-02    0.248E-02
RMM:  23    -0.121096839160E+02   -0.91872E-03   -0.16995E-04   376   0.509E-02    0.203E-02
RMM:  24    -0.121101937117E+02   -0.50980E-03   -0.78987E-05   340   0.370E-02    0.148E-02
RMM:  25    -0.121107077124E+02   -0.51400E-03   -0.85392E-05   362   0.402E-02    0.132E-02
RMM:  26    -0.121107372965E+02   -0.29584E-04   -0.32547E-05   250   0.257E-02
   1 F= -.12110737E+02 E0= -.12094276E+02  d E =-.121107E+02  mag=     1.0040
       N       E                     dE             d eps       ncg     rms          rms(c)
DAV:   1    -0.158989074583E+02   -0.37882E+01   -0.42700E+02   640   0.113E+02    0.258E+01
RMM:   2    -0.134684206020E+02    0.24305E+01   -0.19456E+01   640   0.254E+01    0.129E+01
RMM:   3    -0.129295796366E+02    0.53884E+00   -0.26812E+00   640   0.915E+00    0.577E+00
RMM:   4    -0.128545883604E+02    0.74991E-01   -0.69572E-01   646   0.405E+00    0.370E+00
RMM:   5    -0.128492931863E+02    0.52952E-02   -0.93815E-02   640   0.182E+00    0.138E+00
RMM:   6    -0.128487880437E+02    0.50514E-03   -0.29677E-02   640   0.941E-01    0.547E-01
RMM:   7    -0.128601853738E+02   -0.11397E-01   -0.79156E-03   640   0.529E-01    0.764E-01
RMM:   8    -0.128616042678E+02   -0.14189E-02   -0.24742E-03   618   0.302E-01    0.629E-01
RMM:   9    -0.128620656666E+02   -0.46140E-03   -0.43337E-03   632   0.385E-01    0.191E-01
RMM:  10    -0.128654586950E+02   -0.33930E-02   -0.14245E-03   572   0.200E-01    0.128E-01
RMM:  11    -0.128677935152E+02   -0.23348E-02   -0.60813E-04   428   0.124E-01    0.932E-02
RMM:  12    -0.128704840077E+02   -0.26905E-02   -0.90182E-04   474   0.132E-01    0.636E-02
RMM:  13    -0.128712092354E+02   -0.72523E-03   -0.25932E-04   416   0.684E-02    0.552E-02
RMM:  14    -0.128721919832E+02   -0.98275E-03   -0.40740E-04   416   0.776E-02    0.345E-02
RMM:  15    -0.128727644173E+02   -0.57243E-03   -0.46923E-04   418   0.679E-02    0.290E-02
RMM:  16    -0.128728675421E+02   -0.10312E-03   -0.13150E-04   358   0.370E-02
   2 F= -.12872868E+02 E0= -.12858621E+02  d E =-.762130E+00  mag=     1.0122
       N       E                     dE             d eps       ncg     rms          rms(c)
DAV:   1    -0.140570080056E+02   -0.11842E+01   -0.61412E+01   660   0.435E+01    0.888E+00
RMM:   2    -0.134518899223E+02    0.60512E+00   -0.18343E+00   640   0.880E+00    0.589E+00
RMM:   3    -0.132126750736E+02    0.23921E+00   -0.77251E-01   640   0.446E+00    0.308E+00
RMM:   4    -0.133411069226E+02   -0.12843E+00   -0.12103E-01   640   0.209E+00    0.284E+00
RMM:   5    -0.133186459448E+02    0.22461E-01   -0.42826E-02   640   0.111E+00    0.191E+00
RMM:   6    -0.132959623701E+02    0.22684E-01   -0.34247E-02   640   0.976E-01    0.606E-01
RMM:   7    -0.132984503715E+02   -0.24880E-02   -0.57996E-03   646   0.374E-01    0.353E-01
RMM:   8    -0.132999120959E+02   -0.14617E-02   -0.17054E-03   572   0.247E-01    0.277E-01
RMM:   9    -0.133007323123E+02   -0.82022E-03   -0.83955E-04   492   0.168E-01    0.172E-01
RMM:  10    -0.133013900478E+02   -0.65774E-03   -0.30459E-04   390   0.116E-01    0.144E-01
RMM:  11    -0.133018504527E+02   -0.46040E-03   -0.24168E-04   378   0.102E-01    0.859E-02
RMM:  12    -0.133026373518E+02   -0.78690E-03   -0.17396E-04   370   0.809E-02    0.472E-02
RMM:  13    -0.133031694749E+02   -0.53212E-03   -0.63002E-05   368   0.453E-02    0.403E-02
RMM:  14    -0.133033728402E+02   -0.20337E-03   -0.26923E-05   314   0.309E-02    0.309E-02
RMM:  15    -0.133036897397E+02   -0.31690E-03   -0.30244E-05   364   0.319E-02    0.202E-02
RMM:  16    -0.133044126072E+02   -0.72287E-03   -0.62695E-05   338   0.382E-02    0.196E-02
RMM:  17    -0.133048655265E+02   -0.45292E-03   -0.50316E-05   280   0.321E-02    0.138E-02
RMM:  18    -0.133052123463E+02   -0.34682E-03   -0.49551E-05   303   0.337E-02    0.795E-03
RMM:  19    -0.133053617263E+02   -0.14938E-03   -0.32336E-05   246   0.274E-02
   3 F= -.13305362E+02 E0= -.13289139E+02  d E =-.119462E+01  mag=     1.0115
       N       E                     dE             d eps       ncg     rms          rms(c)
DAV:   1    -0.133093719817E+02   -0.41596E-02   -0.18225E-01   720   0.235E+00    0.469E-01
RMM:   2    -0.133074355362E+02    0.19364E-02   -0.63913E-03   640   0.497E-01    0.275E-01
RMM:   3    -0.133069232534E+02    0.51228E-03   -0.17708E-03   592   0.221E-01    0.122E-01
RMM:   4    -0.133070907698E+02   -0.16752E-03   -0.31833E-04   402   0.978E-02
   4 F= -.13307091E+02 E0= -.13290701E+02  d E =-.119635E+01  mag=     1.0116
       N       E                     dE             d eps       ncg     rms          rms(c)
DAV:   1    -0.143968642658E+02   -0.10899E+01   -0.89553E+01   640   0.567E+01    0.625E+00
RMM:   2    -0.140391150083E+02    0.35775E+00   -0.43852E+00   640   0.134E+01    0.345E+00
RMM:   3    -0.138582090711E+02    0.18091E+00   -0.57405E-01   640   0.408E+00    0.207E+00
RMM:   4    -0.138081163357E+02    0.50093E-01   -0.15570E-01   640   0.216E+00    0.144E+00
RMM:   5    -0.138118736570E+02   -0.37573E-02   -0.30591E-02   640   0.100E+00    0.139E+00
RMM:   6    -0.138049808168E+02    0.68928E-02   -0.88606E-03   640   0.536E-01    0.101E+00
RMM:   7    -0.138025900934E+02    0.23907E-02   -0.13185E-02   640   0.640E-01    0.811E-01
RMM:   8    -0.138023733868E+02    0.21671E-03   -0.73795E-03   640   0.508E-01    0.432E-01
RMM:   9    -0.138026746264E+02   -0.30124E-03   -0.21780E-03   632   0.263E-01    0.140E-01
RMM:  10    -0.138040678413E+02   -0.13932E-02   -0.59875E-04   420   0.134E-01    0.654E-02
RMM:  11    -0.138048587487E+02   -0.79091E-03   -0.22652E-04   384   0.792E-02    0.461E-02
RMM:  12    -0.138057374074E+02   -0.87866E-03   -0.17714E-04   390   0.610E-02    0.297E-02
RMM:  13    -0.138065962023E+02   -0.85879E-03   -0.14005E-04   370   0.480E-02    0.271E-02
RMM:  14    -0.138072550214E+02   -0.65882E-03   -0.10692E-04   344   0.387E-02    0.200E-02
RMM:  15    -0.138078251844E+02   -0.57016E-03   -0.10870E-04   362   0.376E-02    0.139E-02
RMM:  16    -0.138082484443E+02   -0.42326E-03   -0.74977E-05   280   0.325E-02    0.156E-02
RMM:  17    -0.138084095281E+02   -0.16108E-03   -0.41905E-05   240   0.249E-02
   5 F= -.13808410E+02 E0= -.13790444E+02  d E =-.501319E+00  mag=     1.0117
       N       E                     dE             d eps       ncg     rms          rms(c)
DAV:   1    -0.140510459151E+02   -0.24280E+00   -0.27450E+01   668   0.307E+01    0.367E+00
RMM:   2    -0.139367752368E+02    0.11427E+00   -0.12056E+00   640   0.717E+00    0.186E+00
RMM:   3    -0.138811126913E+02    0.55663E-01   -0.14507E-01   640   0.209E+00    0.104E+00
RMM:   4    -0.138788109646E+02    0.23017E-02   -0.41260E-02   640   0.114E+00    0.108E+00
RMM:   5    -0.138802064820E+02   -0.13955E-02   -0.84067E-03   640   0.527E-01    0.101E+00
RMM:   6    -0.138782820634E+02    0.19244E-02   -0.19181E-03   564   0.250E-01    0.803E-01
RMM:   7    -0.138746038107E+02    0.36783E-02   -0.69485E-03   640   0.467E-01    0.393E-01
RMM:   8    -0.138746527373E+02   -0.48927E-04   -0.16743E-03   608   0.248E-01
   6 F= -.13874653E+02 E0= -.13856988E+02  d E =-.567562E+00  mag=     1.0119
       N       E                     dE             d eps       ncg     rms          rms(c)
DAV:   1    -0.144570867229E+02   -0.58248E+00   -0.11962E+02   640   0.598E+01    0.579E+00
RMM:   2    -0.143081112404E+02    0.14898E+00   -0.40634E+00   640   0.131E+01    0.293E+00
RMM:   3    -0.141827770456E+02    0.12533E+00   -0.32754E-01   668   0.309E+00    0.179E+00
RMM:   4    -0.141406442411E+02    0.42133E-01   -0.13008E-01   640   0.201E+00    0.140E+00
RMM:   5    -0.141429645164E+02   -0.23203E-02   -0.13996E-02   640   0.720E-01    0.115E+00
RMM:   6    -0.141356924363E+02    0.72721E-02   -0.15934E-02   640   0.720E-01    0.600E-01
RMM:   7    -0.141394430349E+02   -0.37506E-02   -0.97425E-03   640   0.605E-01    0.445E-01
RMM:   8    -0.141404547425E+02   -0.10117E-02   -0.20921E-03   596   0.277E-01    0.287E-01
RMM:   9    -0.141421750033E+02   -0.17203E-02   -0.13117E-03   548   0.205E-01    0.186E-01
RMM:  10    -0.141441899016E+02   -0.20149E-02   -0.58876E-04   424   0.138E-01    0.978E-02
RMM:  11    -0.141455061875E+02   -0.13163E-02   -0.35504E-04   384   0.943E-02    0.631E-02
RMM:  12    -0.141469810635E+02   -0.14749E-02   -0.36403E-04   396   0.850E-02    0.363E-02
RMM:  13    -0.141479199837E+02   -0.93892E-03   -0.18765E-04   384   0.545E-02    0.343E-02
RMM:  14    -0.141484180928E+02   -0.49811E-03   -0.69787E-05   320   0.376E-02    0.314E-02
RMM:  15    -0.141487467204E+02   -0.32863E-03   -0.42641E-05   293   0.286E-02    0.262E-02
RMM:  16    -0.141491757236E+02   -0.42900E-03   -0.65130E-05   336   0.356E-02    0.145E-02
RMM:  17    -0.141497723778E+02   -0.59665E-03   -0.15469E-04   344   0.419E-02    0.219E-02
RMM:  18    -0.141498761855E+02   -0.10381E-03   -0.25668E-05   212   0.230E-02
   7 F= -.14149876E+02 E0= -.14130197E+02  d E =-.275223E+00  mag=     1.0041
       N       E                     dE             d eps       ncg     rms          rms(c)
DAV:   1    -0.141821282010E+02   -0.32356E-01   -0.54960E+00   664   0.126E+01    0.147E+00
RMM:   2    -0.141636160591E+02    0.18512E-01   -0.18816E-01   640   0.292E+00    0.696E-01
RMM:   3    -0.141571128788E+02    0.65032E-02   -0.15670E-02   650   0.700E-01    0.406E-01
RMM:   4    -0.141572789232E+02   -0.16604E-03   -0.53379E-03   640   0.398E-01    0.369E-01
RMM:   5    -0.141574561834E+02   -0.17726E-03   -0.94625E-04   472   0.182E-01
   8 F= -.14157456E+02 E0= -.14138779E+02  d E =-.282803E+00  mag=     1.0027
       N       E                     dE             d eps       ncg     rms          rms(c)
DAV:   1    -0.148337558195E+02   -0.67648E+00   -0.68087E+01   640   0.421E+01    0.680E+00
RMM:   2    -0.143342561639E+02    0.49950E+00   -0.26404E+00   640   0.975E+00    0.285E+00
RMM:   3    -0.142405548745E+02    0.93701E-01   -0.43982E-01   644   0.319E+00    0.189E+00
RMM:   4    -0.142350934794E+02    0.54614E-02   -0.62307E-02   640   0.138E+00    0.114E+00
RMM:   5    -0.142320633936E+02    0.30301E-02   -0.19411E-02   640   0.795E-01    0.597E-01
RMM:   6    -0.142337993865E+02   -0.17360E-02   -0.51478E-03   640   0.400E-01    0.478E-01
RMM:   7    -0.142374036921E+02   -0.36043E-02   -0.17984E-03   584   0.266E-01    0.539E-01
RMM:   8    -0.142367229184E+02    0.68077E-03   -0.16289E-03   540   0.236E-01    0.280E-01
RMM:   9    -0.142374624656E+02   -0.73955E-03   -0.11400E-03   530   0.189E-01    0.639E-02
RMM:  10    -0.142383250999E+02   -0.86263E-03   -0.20297E-04   384   0.796E-02    0.351E-02
RMM:  11    -0.142390806824E+02   -0.75558E-03   -0.18110E-04   384   0.623E-02    0.258E-02
RMM:  12    -0.142397982537E+02   -0.71757E-03   -0.20008E-04   384   0.534E-02    0.199E-02
RMM:  13    -0.142402014650E+02   -0.40321E-03   -0.13502E-04   320   0.385E-02    0.238E-02
RMM:  14    -0.142403165745E+02   -0.11511E-03   -0.28170E-05   208   0.243E-02
   9 F= -.14240317E+02 E0= -.14225804E+02  d E =-.828604E-01  mag=     1.0036
       N       E                     dE             d eps       ncg     rms          rms(c)
DAV:   1    -0.143074120891E+02   -0.67211E-01   -0.54649E+00   672   0.122E+01    0.179E+00
RMM:   2    -0.142598894743E+02    0.47523E-01   -0.18986E-01   640   0.278E+00    0.108E+00
RMM:   3    -0.142445548821E+02    0.15335E-01   -0.40454E-02   640   0.997E-01    0.745E-01
RMM:   4    -0.142507041117E+02   -0.61492E-02   -0.72754E-03   640   0.494E-01    0.570E-01
RMM:   5    -0.142520132928E+02   -0.13092E-02   -0.31196E-03   570   0.324E-01    0.409E-01
RMM:   6    -0.142520601032E+02   -0.46810E-04   -0.17066E-03   522   0.216E-01
  10 F= -.14252060E+02 E0= -.14236218E+02  d E =-.946039E-01  mag=     1.0041
       N       E                     dE             d eps       ncg     rms          rms(c)
DAV:   1    -0.142529940691E+02   -0.98078E-03   -0.91722E-02   720   0.159E+00    0.305E-01
RMM:   2    -0.142518148130E+02    0.11793E-02   -0.36051E-03   640   0.374E-01    0.184E-01
RMM:   3    -0.142516577483E+02    0.15706E-03   -0.81360E-04   494   0.149E-01
  11 F= -.14251658E+02 E0= -.14235568E+02  d E =-.942016E-01  mag=     1.0041
       N       E                     dE             d eps       ncg     rms          rms(c)
DAV:   1    -0.142522791147E+02   -0.46430E-03   -0.21345E-02   720   0.774E-01    0.187E-01
RMM:   2    -0.142522154249E+02    0.63690E-04   -0.10677E-03   520   0.212E-01
  12 F= -.14252215E+02 E0= -.14236833E+02  d E =-.947592E-01  mag=     1.0040
       N       E                     dE             d eps       ncg     rms          rms(c)
DAV:   1    -0.142521982895E+02    0.80825E-04   -0.83048E-03   704   0.479E-01    0.109E-01
RMM:   2    -0.142522955496E+02   -0.97260E-04   -0.39332E-04   406   0.129E-01
  13 F= -.14252296E+02 E0= -.14236825E+02  d E =-.948394E-01  mag=     1.0041
       N       E                     dE             d eps       ncg     rms          rms(c)
DAV:   1    -0.142524605542E+02   -0.26226E-03   -0.11779E-03   720   0.183E-01    0.130E-01
RMM:   2    -0.142524670118E+02   -0.64575E-05   -0.27322E-04   376   0.106E-01
  14 F= -.14252467E+02 E0= -.14237030E+02  d E =-.950108E-01  mag=     1.0041
       N       E                     dE             d eps       ncg     rms          rms(c)
DAV:   1    -0.142865711441E+02   -0.34111E-01   -0.97090E+00   640   0.168E+01    0.198E+00
RMM:   2    -0.142759879181E+02    0.10583E-01   -0.33274E-01   640   0.391E+00    0.107E+00
RMM:   3    -0.142637615540E+02    0.12226E-01   -0.25381E-02   648   0.935E-01    0.668E-01
RMM:   4    -0.142607996477E+02    0.29619E-02   -0.13095E-02   640   0.622E-01    0.531E-01
RMM:   5    -0.142627052499E+02   -0.19056E-02   -0.23364E-03   616   0.290E-01    0.556E-01
RMM:   6    -0.142624313050E+02    0.27394E-03   -0.34045E-04   384   0.112E-01    0.470E-01
RMM:   7    -0.142613052781E+02    0.11260E-02   -0.16887E-03   592   0.237E-01    0.156E-01
RMM:   8    -0.142614748951E+02   -0.16962E-03   -0.20766E-04   384   0.971E-02
  15 F= -.14261475E+02 E0= -.14246054E+02  d E =-.900788E-02  mag=     0.9955
       N       E                     dE             d eps       ncg     rms          rms(c)
DAV:   1    -0.142711371052E+02   -0.98318E-02   -0.15457E+00   640   0.666E+00    0.855E-01
RMM:   2    -0.142687069103E+02    0.24302E-02   -0.50736E-02   640   0.156E+00    0.422E-01
RMM:   3    -0.142672241378E+02    0.14828E-02   -0.38438E-03   650   0.359E-01    0.262E-01
RMM:   4    -0.142676804260E+02   -0.45629E-03   -0.17617E-03   614   0.233E-01    0.206E-01
RMM:   5    -0.142678259650E+02   -0.14554E-03   -0.38899E-04   410   0.120E-01
  16 F= -.14267826E+02 E0= -.14252189E+02  d E =-.153590E-01  mag=     0.9972
       N       E                     dE             d eps       ncg     rms          rms(c)
DAV:   1    -0.142869166013E+02   -0.19236E-01   -0.29093E+00   648   0.948E+00    0.136E+00
RMM:   2    -0.142804294418E+02    0.64872E-02   -0.11048E-01   640   0.227E+00    0.683E-01
RMM:   3    -0.142767186323E+02    0.37108E-02   -0.92436E-03   640   0.565E-01    0.369E-01
RMM:   4    -0.142761236603E+02    0.59497E-03   -0.44771E-03   640   0.348E-01    0.282E-01
RMM:   5    -0.142756382591E+02    0.48540E-03   -0.88419E-04   492   0.175E-01    0.167E-01
RMM:   6    -0.142756476087E+02   -0.93496E-05   -0.36121E-04   400   0.120E-01
  17 F= -.14275648E+02 E0= -.14259592E+02  d E =-.782164E-02  mag=     0.9898
       N       E                     dE             d eps       ncg     rms          rms(c)
DAV:   1    -0.142761760151E+02   -0.53776E-03   -0.10800E-01   672   0.182E+00    0.296E-01
RMM:   2    -0.142758195730E+02    0.35644E-03   -0.42923E-03   640   0.444E-01    0.188E-01
RMM:   3    -0.142754963031E+02    0.32327E-03   -0.51166E-04   414   0.137E-01    0.106E-01
RMM:   4    -0.142756920547E+02   -0.19575E-03   -0.21721E-04   368   0.939E-02
  18 F= -.14275692E+02 E0= -.14259574E+02  d E =-.786609E-02  mag=     0.9862
       N       E                     dE             d eps       ncg     rms          rms(c)
DAV:   1    -0.142885009506E+02   -0.13005E-01   -0.20450E+00   640   0.708E+00    0.723E-01
RMM:   2    -0.142831458673E+02    0.53551E-02   -0.60812E-02   640   0.162E+00    0.377E-01
RMM:   3    -0.142811918190E+02    0.19540E-02   -0.57969E-03   648   0.406E-01    0.241E-01
RMM:   4    -0.142814522873E+02   -0.26047E-03   -0.15035E-03   514   0.204E-01    0.189E-01
RMM:   5    -0.142816622846E+02   -0.21000E-03   -0.40364E-04   400   0.127E-01    0.170E-01
RMM:   6    -0.142816436509E+02    0.18634E-04   -0.18595E-04   376   0.862E-02
  19 F= -.14281644E+02 E0= -.14266518E+02  d E =-.595160E-02  mag=     0.9785
       N       E                     dE             d eps       ncg     rms          rms(c)
DAV:   1    -0.143134524904E+02   -0.31790E-01   -0.10558E+01   640   0.160E+01    0.158E+00
RMM:   2    -0.142917162812E+02    0.21736E-01   -0.32092E-01   640   0.369E+00    0.798E-01
RMM:   3    -0.142821149159E+02    0.96014E-02   -0.30214E-02   650   0.921E-01    0.530E-01
RMM:   4    -0.142803288127E+02    0.17861E-02   -0.82314E-03   640   0.467E-01    0.362E-01
RMM:   5    -0.142814105393E+02   -0.10817E-02   -0.21258E-03   608   0.262E-01    0.370E-01
RMM:   6    -0.142813829879E+02    0.27551E-04   -0.30046E-04   384   0.103E-01
  20 F= -.14281383E+02 E0= -.14268437E+02  d E =-.569093E-02  mag=     0.9599
       N       E                     dE             d eps       ncg     rms          rms(c)
DAV:   1    -0.142880398285E+02   -0.66293E-02   -0.67634E-01   640   0.407E+00    0.445E-01
RMM:   2    -0.142852037245E+02    0.28361E-02   -0.20325E-02   640   0.924E-01    0.264E-01
RMM:   3    -0.142845309174E+02    0.67281E-03   -0.26127E-03   640   0.270E-01    0.183E-01
RMM:   4    -0.142848050878E+02   -0.27417E-03   -0.67128E-04   448   0.136E-01    0.134E-01
RMM:   5    -0.142851307315E+02   -0.32564E-03   -0.20928E-04   376   0.941E-02    0.131E-01
RMM:   6    -0.142852202722E+02   -0.89541E-04   -0.97341E-05   368   0.625E-02
  21 F= -.14285220E+02 E0= -.14272403E+02  d E =-.383728E-02  mag=     0.9497
       N       E                     dE             d eps       ncg     rms          rms(c)
DAV:   1    -0.143066347531E+02   -0.21504E-01   -0.37936E+00   640   0.960E+00    0.989E-01
RMM:   2    -0.142930335782E+02    0.13601E-01   -0.11814E-01   640   0.221E+00    0.472E-01
RMM:   3    -0.142891397268E+02    0.38939E-02   -0.13077E-02   642   0.591E-01    0.316E-01
RMM:   4    -0.142886581820E+02    0.48154E-03   -0.29113E-03   628   0.273E-01    0.208E-01
RMM:   5    -0.142887360046E+02   -0.77823E-04   -0.88062E-04   464   0.172E-01
  22 F= -.14288736E+02 E0= -.14276930E+02  d E =-.735302E-02  mag=     0.9348
       N       E                     dE             d eps       ncg     rms          rms(c)
DAV:   1    -0.143534979196E+02   -0.64840E-01   -0.15194E+01   640   0.191E+01    0.198E+00
RMM:   2    -0.143064422708E+02    0.47056E-01   -0.49454E-01   640   0.448E+00    0.963E-01
RMM:   3    -0.142896618475E+02    0.16780E-01   -0.54881E-02   642   0.121E+00    0.618E-01
RMM:   4    -0.142852059542E+02    0.44559E-02   -0.12831E-02   640   0.575E-01    0.409E-01
RMM:   5    -0.142851430465E+02    0.62908E-04   -0.36569E-03   640   0.336E-01    0.318E-01
RMM:   6    -0.142857530094E+02   -0.60996E-03   -0.96412E-04   468   0.178E-01    0.193E-01
RMM:   7    -0.142870940612E+02   -0.13411E-02   -0.66588E-04   432   0.148E-01    0.187E-01
RMM:   8    -0.142872024102E+02   -0.10835E-03   -0.39837E-04   408   0.125E-01
  23 F= -.14287202E+02 E0= -.14276736E+02  d E =-.581942E-02  mag=     0.8985
       N       E                     dE             d eps       ncg     rms          rms(c)
DAV:   1    -0.142966778054E+02   -0.95837E-02   -0.14530E+00   656   0.598E+00    0.729E-01
RMM:   2    -0.142911391533E+02    0.55387E-02   -0.45678E-02   640   0.140E+00    0.441E-01
RMM:   3    -0.142886590673E+02    0.24801E-02   -0.61279E-03   640   0.402E-01    0.259E-01
RMM:   4    -0.142899601690E+02   -0.13011E-02   -0.18586E-03   552   0.233E-01    0.222E-01
RMM:   5    -0.142907300137E+02   -0.76984E-03   -0.69128E-04   440   0.158E-01    0.179E-01
RMM:   6    -0.142909342488E+02   -0.20424E-03   -0.27984E-04   376   0.909E-02    0.108E-01
RMM:   7    -0.142910531827E+02   -0.11893E-03   -0.35683E-04   384   0.105E-01
  24 F= -.14291053E+02 E0= -.14279772E+02  d E =-.967019E-02  mag=     0.9047
       N       E                     dE             d eps       ncg     rms          rms(c)
DAV:   1    -0.143011376857E+02   -0.10203E-01   -0.19000E+00   656   0.685E+00    0.817E-01
RMM:   2    -0.142933639676E+02    0.77737E-02   -0.59295E-02   640   0.159E+00    0.495E-01
RMM:   3    -0.142892615387E+02    0.41024E-02   -0.81025E-03   640   0.463E-01    0.301E-01
RMM:   4    -0.142902247637E+02   -0.96322E-03   -0.23407E-03   578   0.262E-01    0.264E-01
RMM:   5    -0.142907939536E+02   -0.56919E-03   -0.87159E-04   472   0.177E-01    0.216E-01
RMM:   6    -0.142910799328E+02   -0.28598E-03   -0.36923E-04   376   0.106E-01    0.135E-01
RMM:   7    -0.142913114645E+02   -0.23153E-03   -0.36530E-04   400   0.108E-01    0.812E-02
RMM:   8    -0.142914531128E+02   -0.14165E-03   -0.17960E-04   368   0.809E-02
  25 F= -.14291453E+02 E0= -.14279565E+02  d E =-.100701E-01  mag=     0.9167
       N       E                     dE             d eps       ncg     rms          rms(c)
DAV:   1    -0.142939017578E+02   -0.25903E-02   -0.14112E-01   704   0.192E+00    0.263E-01
RMM:   2    -0.142936056865E+02    0.29607E-03   -0.45613E-03   640   0.444E-01    0.166E-01
RMM:   3    -0.142933472337E+02    0.25845E-03   -0.47362E-04   422   0.127E-01    0.108E-01
RMM:   4    -0.142933834486E+02   -0.36215E-04   -0.24195E-04   384   0.939E-02
  26 F= -.14293383E+02 E0= -.14281135E+02  d E =-.193034E-02  mag=     0.9180
       N       E                     dE             d eps       ncg     rms          rms(c)
DAV:   1    -0.142950871393E+02   -0.17399E-02   -0.23170E-01   656   0.246E+00    0.322E-01
RMM:   2    -0.142944635823E+02    0.62356E-03   -0.71355E-03   640   0.562E-01    0.177E-01
RMM:   3    -0.142941609109E+02    0.30267E-03   -0.68087E-04   450   0.148E-01    0.124E-01
RMM:   4    -0.142941785847E+02   -0.17674E-04   -0.29999E-04   384   0.108E-01
  27 F= -.14294179E+02 E0= -.14281397E+02  d E =-.272547E-02  mag=     0.9200
