    2    2  800    2
  0.1687500E+04  0.1500000E-08  0.1500000E-08  0.1500000E-08  0.5000000E-15
  1.000000000000000E-004
  CAR 
 unknown system                          
      5      1     20
 
  0.0000000E+00  0.0000000E+00  0.0000000E+00  0.1000000E+01
    1      -16.156779    -14.972999
    2       -7.663975     -7.172933
    3       -5.865661     -3.983804
    4       -5.865268     -3.982249
    5       -0.523326     -0.310097
    6        0.156278      0.201713
    7        0.413130      0.506086
    8        0.437131      0.554247
    9        0.483775      0.561193
   10        0.570073      0.598585
   11        0.600990      0.642245
   12        0.914671      0.929897
   13        1.016270      1.122109
   14        1.040787      1.146250
   15        1.119213      1.170454
   16        1.130948      1.188201
   17        1.151537      1.197681
   18        1.181390      1.263264
   19        1.233161      1.264905
   20        1.244805      1.269776
