       N       E                     dE             d eps       ncg     rms          rms(c)
DAV:   1     0.153793114862E+02    0.15379E+02   -0.80427E+02   120   0.774E+01
DAV:   2    -0.416695954673E+01   -0.19546E+02   -0.19542E+02   160   0.204E+01
DAV:   3    -0.463679224216E+01   -0.46983E+00   -0.45668E+00    80   0.387E+00
DAV:   4    -0.464214024062E+01   -0.53480E-02   -0.53447E-02   120   0.498E-01
DAV:   5    -0.464217808957E+01   -0.37849E-04   -0.37849E-04   120   0.326E-02    0.690E+00
DAV:   6    -0.360542466822E+01    0.10368E+01   -0.59620E+00   120   0.547E+00    0.366E+00
DAV:   7    -0.474033492329E+01   -0.11349E+01   -0.88327E-01    80   0.202E+00    0.195E+00
DAV:   8    -0.530597933516E+01   -0.56564E+00   -0.23818E-01    80   0.101E+00    0.107E+00
DAV:   9    -0.556158908911E+01   -0.25561E+00   -0.52541E-02   160   0.595E-01    0.324E+00
DAV:  10    -0.551554022155E+01    0.46049E-01   -0.40350E-02    80   0.564E-01    0.119E+00
DAV:  11    -0.566166667424E+01   -0.14613E+00   -0.93949E-02   120   0.247E-01    0.108E+00
DAV:  12    -0.578313366123E+01   -0.12147E+00   -0.40553E-03   120   0.198E-01    0.532E-01
DAV:  13    -0.582303780422E+01   -0.39904E-01   -0.80666E-03   100   0.562E-02    0.103E+00
DAV:  14    -0.596138711376E+01   -0.13835E+00   -0.11288E-02    80   0.127E-01    0.232E-01
DAV:  15    -0.601120756557E+01   -0.49820E-01   -0.17387E-03   120   0.895E-02    0.220E-01
DAV:  16    -0.602345830903E+01   -0.12251E-01   -0.86999E-04   100   0.608E-02    0.758E-02
DAV:  17    -0.602219289478E+01    0.12654E-02   -0.13013E-03    80   0.469E-02    0.921E-02
DAV:  18    -0.602356975411E+01   -0.13769E-02   -0.30445E-04    80   0.429E-02    0.621E-02
DAV:  19    -0.602600207112E+01   -0.24323E-02   -0.32536E-04   160   0.249E-02    0.368E-02
DAV:  20    -0.602858688761E+01   -0.25848E-02   -0.16641E-04    80   0.248E-02    0.280E-02
DAV:  21    -0.602916037028E+01   -0.57348E-03   -0.49595E-05   120   0.114E-02    0.472E-03
DAV:  22    -0.602920339107E+01   -0.43021E-04   -0.84355E-06    80   0.729E-03
   1 F= -.60292034E+01 E0= -.60150989E+01  d E =-.602920E+01  mag=     1.0011
       N       E                     dE             d eps       ncg     rms          rms(c)
DAV:   1    -0.593741771269E+01    0.91743E-01   -0.21444E+01    80   0.142E+01    0.180E+00
DAV:   2    -0.592926684544E+01    0.81509E-02   -0.36105E-01   120   0.150E+00    0.866E-01
DAV:   3    -0.593554484827E+01   -0.62780E-02   -0.23424E-02   120   0.388E-01    0.635E-01
DAV:   4    -0.596602927443E+01   -0.30484E-01   -0.10019E-02   100   0.279E-01    0.315E+00
DAV:   5    -0.590932092470E+01    0.56708E-01   -0.10904E-02   120   0.319E-01    0.998E-01
DAV:   6    -0.593880438493E+01   -0.29483E-01   -0.57209E-02   120   0.195E-01    0.180E+00
DAV:   7    -0.593699285584E+01    0.18115E-02   -0.15065E-02   120   0.141E-01    0.517E-01
DAV:   8    -0.594599884400E+01   -0.90060E-02   -0.17679E-03   120   0.853E-02    0.257E-01
DAV:   9    -0.594796404588E+01   -0.19652E-02   -0.11665E-04    80   0.428E-02    0.145E-01
DAV:  10    -0.594929463339E+01   -0.13306E-02   -0.10394E-04   100   0.263E-02    0.508E-02
DAV:  11    -0.594974868676E+01   -0.45405E-03   -0.82204E-05   120   0.210E-02    0.176E-02
DAV:  12    -0.595032310820E+01   -0.57442E-03   -0.47975E-05    80   0.186E-02    0.343E-02
DAV:  13    -0.595048616793E+01   -0.16306E-03   -0.22461E-05   160   0.107E-02    0.257E-02
DAV:  14    -0.595054266208E+01   -0.56494E-04   -0.58839E-06   120   0.512E-03
   2 F= -.59505427E+01 E0= -.59364382E+01  d E =0.786607E-01  mag=     1.0000
       N       E                     dE             d eps       ncg     rms          rms(c)
DAV:   1    -0.606416079229E+01   -0.11367E+00   -0.87677E+00    80   0.885E+00    0.108E+00
DAV:   2    -0.607092344211E+01   -0.67626E-02   -0.14708E-01   140   0.109E+00    0.587E-01
DAV:   3    -0.607084723774E+01    0.76204E-04   -0.12881E-02   120   0.243E-01    0.881E-01
DAV:   4    -0.608125243976E+01   -0.10405E-01   -0.25969E-03   120   0.150E-01    0.258E+00
DAV:   5    -0.604334736656E+01    0.37905E-01   -0.74396E-03   120   0.268E-01    0.403E-01
DAV:   6    -0.606916551087E+01   -0.25818E-01   -0.24244E-03   160   0.150E-01    0.121E-01
DAV:   7    -0.607476820452E+01   -0.56027E-02   -0.80816E-04   120   0.707E-02    0.409E-01
DAV:   8    -0.607401412439E+01    0.75408E-03   -0.77243E-04   120   0.443E-02    0.136E-01
DAV:   9    -0.607494510090E+01   -0.93098E-03   -0.90770E-05    80   0.257E-02    0.832E-02
DAV:  10    -0.607556967283E+01   -0.62457E-03   -0.29466E-05   160   0.148E-02    0.412E-02
DAV:  11    -0.607582993785E+01   -0.26027E-03   -0.23636E-05    80   0.132E-02    0.911E-03
DAV:  12    -0.607608388719E+01   -0.25395E-03   -0.17104E-05   120   0.119E-02    0.125E-02
DAV:  13    -0.607623107360E+01   -0.14719E-03   -0.14932E-05   160   0.793E-03    0.142E-02
DAV:  14    -0.607629332018E+01   -0.62247E-04   -0.55218E-06   160   0.500E-03
   3 F= -.60762933E+01 E0= -.60621888E+01  d E =-.470899E-01  mag=     1.0000
