    3    3  800    2
  0.1125000E+04  0.1500000E-08  0.1500000E-08  0.1500000E-08  0.5000000E-15
  1.000000000000000E-004
  CAR 
 unknown system                          
      8      1     16
 
  0.0000000E+00  0.0000000E+00  0.0000000E+00  0.1000000E+01
    1      -25.277986    -25.278009   1.000000   1.000000
    2      -13.074289    -13.074290   1.000000   1.000000
    3       -9.244436     -9.244465   1.000000   1.000000
    4       -7.181977     -7.182000   1.000000   1.000000
    5       -0.976066     -0.948578   0.000000   0.000000
    6        0.065679      0.046823   0.000000   0.000000
    7        0.353778      0.422192   0.000000   0.000000
    8        0.483082      0.542934   0.000000   0.000000
    9        0.483542      0.558995   0.000000   0.000000
   10        0.545437      0.576613   0.000000   0.000000
   11        0.628975      0.652739   0.000000   0.000000
   12        0.932784      0.896613   0.000000   0.000000
   13        0.940690      0.900149   0.000000   0.000000
   14        1.083285      1.070232   0.000000   0.000000
   15        1.093090      1.108899   0.000000   0.000000
   16        1.219217      1.270276   0.000000   0.000000
