       N       E                     dE             d eps       ncg     rms          rms(c)
DAV:   1     0.703084296036E+02    0.70308E+02   -0.13486E+03    88   0.162E+02
DAV:   2     0.176019653240E+02   -0.52706E+02   -0.49406E+02   104   0.465E+01
DAV:   3    -0.106837498446E+02   -0.28286E+02   -0.28165E+02    96   0.392E+01
DAV:   4    -0.128772140568E+02   -0.21935E+01   -0.21930E+01    72   0.131E+01
DAV:   5    -0.128943369320E+02   -0.17123E-01   -0.17123E-01    80   0.126E+00    0.139E+01
DAV:   6    -0.409160380802E+01    0.88027E+01   -0.22295E+01    80   0.181E+01    0.492E+00
DAV:   7    -0.106233014317E+02   -0.65317E+01   -0.45554E+00    80   0.642E+00    0.311E+00
DAV:   8    -0.114821811688E+02   -0.85888E+00   -0.26462E-01    64   0.226E+00    0.185E+00
DAV:   9    -0.129947738440E+02   -0.15126E+01   -0.76185E-01    64   0.273E+00    0.508E-01
DAV:  10    -0.131803188610E+02   -0.18555E+00   -0.71169E-02    88   0.770E-01    0.312E-01
DAV:  11    -0.135254284450E+02   -0.34511E+00   -0.13405E-02    88   0.378E-01    0.196E-01
DAV:  12    -0.141054267072E+02   -0.58000E+00   -0.21616E-02    96   0.343E-01    0.793E-02
DAV:  13    -0.141953338994E+02   -0.89907E-01   -0.51758E-03    72   0.181E-01    0.446E-02
DAV:  14    -0.142123108093E+02   -0.16977E-01   -0.12227E-03    72   0.982E-02    0.280E-02
DAV:  15    -0.142066264172E+02    0.56844E-02   -0.55747E-04    72   0.805E-02    0.252E-02
DAV:  16    -0.142119517160E+02   -0.53253E-02   -0.36589E-04    80   0.650E-02    0.189E-02
DAV:  17    -0.142190447170E+02   -0.70930E-02   -0.31283E-04    88   0.513E-02    0.140E-02
DAV:  18    -0.142211578489E+02   -0.21131E-02   -0.84627E-05    88   0.315E-02    0.625E-03
DAV:  19    -0.142220289469E+02   -0.87110E-03   -0.20183E-05    80   0.189E-02    0.502E-03
DAV:  20    -0.142222548502E+02   -0.22590E-03   -0.49632E-06    64   0.980E-03    0.199E-03
DAV:  21    -0.142223191734E+02   -0.64323E-04   -0.20310E-06    80   0.554E-03
   1 F= -.14222319E+02 E0= -.14222319E+02  d E =-.142223E+02  mag=     0.0007
