   10   10  800    2
  0.3375000E+03  0.1500000E-08  0.1500000E-08  0.1500000E-08  0.5000000E-15
  1.000000000000000E-004
  CAR 
 unknown system                          
     19      1     20
 
  0.0000000E+00  0.0000000E+00  0.0000000E+00  0.1000000E+01
    1      -19.307020    -19.064278
    2      -16.495132    -16.075282
    3      -14.104954    -13.783628
    4      -11.267679    -11.165657
    5      -10.417192    -10.280987
    6       -9.422545     -9.300978
    7       -9.207072     -8.965814
    8       -8.352968     -8.241962
    9       -7.848714     -7.795927
   10       -4.585948     -2.308481
   11       -0.462779     -0.355874
   12        0.142997      0.238279
   13        0.204291      0.275587
   14        0.214695      0.330076
   15        0.299914      0.356823
   16        0.525138      0.596217
   17        0.591115      0.638929
   18        0.967324      0.996238
   19        0.984743      1.006878
   20        0.988879      1.033478
