       N       E                     dE             d eps       ncg     rms          rms(c)
DAV:   1     0.474792414182E+02    0.47479E+02   -0.44684E+03   140   0.381E+02
DAV:   2    -0.363766897912E+02   -0.83856E+02   -0.79018E+02   140   0.918E+01
DAV:   3    -0.428869053461E+02   -0.65102E+01   -0.65102E+01    80   0.280E+01
DAV:   4    -0.430847361096E+02   -0.19783E+00   -0.19783E+00   120   0.580E+00
DAV:   5    -0.430896818738E+02   -0.49458E-02   -0.49458E-02   160   0.637E-01    0.199E+01
DAV:   6    -0.203757135597E+02    0.22714E+02   -0.74400E+01   100   0.364E+01    0.962E+00
DAV:   7    -0.371412630299E+02   -0.16766E+02   -0.15922E+01   160   0.164E+01    0.578E+00
DAV:   8    -0.405216705918E+02   -0.33804E+01   -0.12876E+00   100   0.494E+00    0.321E+00
DAV:   9    -0.470489064663E+02   -0.65272E+01   -0.31924E+00    80   0.617E+00    0.117E+00
DAV:  10    -0.484575261235E+02   -0.14086E+01   -0.39905E-01   120   0.238E+00    0.822E-01
DAV:  11    -0.493357506117E+02   -0.87822E+00   -0.15761E-01   120   0.163E+00    0.461E-01
DAV:  12    -0.502094399361E+02   -0.87369E+00   -0.21669E-01    80   0.153E+00    0.222E-01
DAV:  13    -0.504030349999E+02   -0.19360E+00   -0.22106E-02   100   0.502E-01    0.111E-01
DAV:  14    -0.506012468261E+02   -0.19821E+00   -0.11512E-02    80   0.358E-01    0.568E-02
DAV:  15    -0.506081965129E+02   -0.69497E-02   -0.15464E-03   160   0.137E-01    0.387E-02
DAV:  16    -0.506086454761E+02   -0.44896E-03   -0.80263E-04   120   0.107E-01    0.231E-02
DAV:  17    -0.506137303013E+02   -0.50848E-02   -0.83198E-04   120   0.921E-02    0.187E-02
DAV:  18    -0.506204982353E+02   -0.67679E-02   -0.51431E-04   120   0.651E-02    0.114E-02
DAV:  19    -0.506249030566E+02   -0.44048E-02   -0.18554E-04    80   0.381E-02    0.620E-03
DAV:  20    -0.506255272100E+02   -0.62415E-03   -0.24298E-05   100   0.179E-02    0.349E-03
DAV:  21    -0.506257185524E+02   -0.19134E-03   -0.88728E-06   140   0.111E-02    0.179E-03
DAV:  22    -0.506258103102E+02   -0.91758E-04   -0.16382E-06   140   0.565E-03
   1 F= -.50625810E+02 E0= -.50625810E+02  d E =-.506258E+02  mag=     1.0005
       N       E                     dE             d eps       ncg     rms          rms(c)
DAV:   1    -0.484023898051E+02    0.22233E+01   -0.14824E+02    80   0.677E+01    0.355E+00
DAV:   2    -0.506963128664E+02   -0.22939E+01   -0.59761E+00   100   0.128E+01    0.224E+00
DAV:   3    -0.508279075076E+02   -0.13159E+00   -0.34544E-01   120   0.336E+00    0.131E+00
DAV:   4    -0.508301226805E+02   -0.22152E-02   -0.18289E-01   140   0.236E+00    0.746E-01
DAV:   5    -0.508496881951E+02   -0.19566E-01   -0.20941E-02   120   0.857E-01    0.483E-01
DAV:   6    -0.508639987794E+02   -0.14311E-01   -0.49116E-03   120   0.315E-01    0.185E-01
DAV:   7    -0.508687639402E+02   -0.47652E-02   -0.19993E-03   120   0.249E-01    0.489E-02
DAV:   8    -0.508712264460E+02   -0.24625E-02   -0.76339E-04    80   0.132E-01    0.234E-02
DAV:   9    -0.508730111364E+02   -0.17847E-02   -0.41898E-05   120   0.388E-02    0.181E-02
DAV:  10    -0.508746176517E+02   -0.16065E-02   -0.44858E-05   120   0.341E-02    0.607E-03
DAV:  11    -0.508752096410E+02   -0.59199E-03   -0.27927E-05   160   0.244E-02    0.722E-03
DAV:  12    -0.508753983600E+02   -0.18872E-03   -0.94062E-06   140   0.106E-02    0.536E-03
DAV:  13    -0.508754580656E+02   -0.59706E-04   -0.22581E-05   160   0.130E-02
   2 F= -.50875458E+02 E0= -.50875458E+02  d E =-.249648E+00  mag=     1.0000
       N       E                     dE             d eps       ncg     rms          rms(c)
DAV:   1    -0.510658037650E+02   -0.19041E+00   -0.26036E+01    80   0.292E+01    0.158E+00
DAV:   2    -0.510941152837E+02   -0.28312E-01   -0.54936E-01   100   0.423E+00    0.933E-01
DAV:   3    -0.511205507311E+02   -0.26435E-01   -0.54484E-02   160   0.128E+00    0.532E-01
DAV:   4    -0.511232894808E+02   -0.27387E-02   -0.11171E-02   160   0.600E-01    0.289E-01
DAV:   5    -0.511283864735E+02   -0.50970E-02   -0.16726E-03   120   0.225E-01    0.148E-01
DAV:   6    -0.511313926123E+02   -0.30061E-02   -0.30419E-04   100   0.800E-02    0.384E-02
DAV:   7    -0.511325937813E+02   -0.12012E-02   -0.53060E-05   120   0.377E-02    0.130E-02
DAV:   8    -0.511335342295E+02   -0.94045E-03   -0.21993E-05    80   0.214E-02    0.658E-03
DAV:   9    -0.511340604065E+02   -0.52618E-03   -0.74122E-06    80   0.130E-02    0.326E-03
DAV:  10    -0.511344497811E+02   -0.38937E-03   -0.11177E-05   160   0.129E-02    0.267E-03
DAV:  11    -0.511345709932E+02   -0.12121E-03   -0.99894E-06   120   0.104E-02    0.216E-03
DAV:  12    -0.511345865475E+02   -0.15554E-04   -0.29043E-06   160   0.520E-03
   3 F= -.51134587E+02 E0= -.51134587E+02  d E =-.508776E+00  mag=     1.0000
       N       E                     dE             d eps       ncg     rms          rms(c)
DAV:   1    -0.511563351266E+02   -0.21764E-01   -0.11767E+01    80   0.200E+01    0.104E+00
DAV:   2    -0.511843093521E+02   -0.27974E-01   -0.25661E-01   100   0.271E+00    0.564E-01
DAV:   3    -0.512066427240E+02   -0.22333E-01   -0.15221E-02   160   0.723E-01    0.311E-01
DAV:   4    -0.512088072578E+02   -0.21645E-02   -0.43113E-03   120   0.361E-01    0.126E-01
DAV:   5    -0.512119589040E+02   -0.31516E-02   -0.55498E-04    80   0.130E-01    0.542E-02
DAV:   6    -0.512141472721E+02   -0.21884E-02   -0.24933E-04   120   0.708E-02    0.223E-02
DAV:   7    -0.512151302417E+02   -0.98297E-03   -0.31196E-05    80   0.292E-02    0.831E-03
DAV:   8    -0.512156779526E+02   -0.54771E-03   -0.83699E-06    80   0.118E-02    0.434E-03
DAV:   9    -0.512160189513E+02   -0.34100E-03   -0.47862E-06   160   0.851E-03    0.227E-03
DAV:  10    -0.512162270070E+02   -0.20806E-03   -0.39898E-06   140   0.691E-03    0.166E-03
DAV:  11    -0.512162936746E+02   -0.66668E-04   -0.40045E-06   160   0.632E-03
   4 F= -.51216294E+02 E0= -.51216294E+02  d E =-.817071E-01  mag=     1.0000
       N       E                     dE             d eps       ncg     rms          rms(c)
DAV:   1    -0.512201862918E+02   -0.39593E-02   -0.45405E-01    80   0.392E+00    0.203E-01
DAV:   2    -0.512203943728E+02   -0.20808E-03   -0.86678E-03   160   0.507E-01    0.115E-01
DAV:   3    -0.512211476184E+02   -0.75325E-03   -0.47436E-04   120   0.135E-01    0.632E-02
DAV:   4    -0.512211071824E+02    0.40436E-04   -0.23204E-04   120   0.792E-02
   5 F= -.51221107E+02 E0= -.51221107E+02  d E =-.865206E-01  mag=     1.0000
       N       E                     dE             d eps       ncg     rms          rms(c)
DAV:   1    -0.512548497574E+02   -0.33702E-01   -0.86637E+00    80   0.175E+01    0.772E-01
DAV:   2    -0.512574307135E+02   -0.25810E-02   -0.13116E-01   100   0.202E+00    0.392E-01
DAV:   3    -0.512703154741E+02   -0.12885E-01   -0.12624E-02   160   0.628E-01    0.217E-01
DAV:   4    -0.512716494293E+02   -0.13340E-02   -0.18170E-03   160   0.242E-01    0.109E-01
DAV:   5    -0.512731368374E+02   -0.14874E-02   -0.29428E-04   160   0.877E-02    0.537E-02
DAV:   6    -0.512739966362E+02   -0.85980E-03   -0.88548E-05   120   0.424E-02    0.165E-02
DAV:   7    -0.512743534006E+02   -0.35676E-03   -0.10352E-05   160   0.198E-02    0.674E-03
DAV:   8    -0.512745783880E+02   -0.22499E-03   -0.43401E-06    80   0.107E-02    0.352E-03
DAV:   9    -0.512747298905E+02   -0.15150E-03   -0.27944E-06   160   0.726E-03    0.196E-03
DAV:  10    -0.512748225810E+02   -0.92691E-04   -0.25066E-06   160   0.529E-03
   6 F= -.51274823E+02 E0= -.51274823E+02  d E =-.537154E-01  mag=     1.0000
       N       E                     dE             d eps       ncg     rms          rms(c)
DAV:   1    -0.512749103255E+02   -0.18044E-03   -0.11386E-02   160   0.627E-01    0.291E-02
DAV:   2    -0.512748998482E+02    0.10477E-04   -0.12980E-04   120   0.638E-02
   7 F= -.51274900E+02 E0= -.51274900E+02  d E =-.537927E-01  mag=     1.0000
       N       E                     dE             d eps       ncg     rms          rms(c)
DAV:   1    -0.512902588152E+02   -0.15348E-01   -0.19629E+00    80   0.851E+00    0.328E-01
DAV:   2    -0.512916958354E+02   -0.14370E-02   -0.30132E-02    80   0.101E+00    0.217E-01
DAV:   3    -0.512929071338E+02   -0.12113E-02   -0.21785E-03   160   0.283E-01    0.128E-01
DAV:   4    -0.512929043657E+02    0.27681E-05   -0.16200E-03   160   0.221E-01    0.564E-02
DAV:   5    -0.512932757483E+02   -0.37138E-03   -0.30846E-04   120   0.975E-02    0.319E-02
DAV:   6    -0.512934898883E+02   -0.21414E-03   -0.10130E-04   120   0.458E-02    0.145E-02
DAV:   7    -0.512935414594E+02   -0.51571E-04   -0.16598E-05   160   0.222E-02
   8 F= -.51293541E+02 E0= -.51293541E+02  d E =-.186416E-01  mag=     1.0000
       N       E                     dE             d eps       ncg     rms          rms(c)
DAV:   1    -0.512936991993E+02   -0.20931E-03   -0.16555E-02   100   0.782E-01    0.305E-02
DAV:   2    -0.512937162370E+02   -0.17038E-04   -0.24920E-04   160   0.900E-02
   9 F= -.51293716E+02 E0= -.51293716E+02  d E =-.188164E-01  mag=     1.0000
       N       E                     dE             d eps       ncg     rms          rms(c)
DAV:   1    -0.513051183236E+02   -0.11419E-01   -0.54610E-01    80   0.449E+00    0.204E-01
DAV:   2    -0.513051243340E+02   -0.60104E-05   -0.88203E-03   100   0.505E-01    0.128E-01
DAV:   3    -0.513050134131E+02    0.11092E-03   -0.10902E-03   160   0.176E-01    0.632E-02
DAV:   4    -0.513052904639E+02   -0.27705E-03   -0.14152E-04   140   0.718E-02    0.275E-02
DAV:   5    -0.513054627981E+02   -0.17233E-03   -0.38122E-05   100   0.347E-02    0.139E-02
DAV:   6    -0.513055656505E+02   -0.10285E-03   -0.11266E-05   120   0.188E-02    0.473E-03
DAV:   7    -0.513056111837E+02   -0.45533E-04   -0.10209E-06   160   0.561E-03
  10 F= -.51305611E+02 E0= -.51305611E+02  d E =-.118949E-01  mag=     1.0000
       N       E                     dE             d eps       ncg     rms          rms(c)
DAV:   1    -0.513096854275E+02   -0.41198E-02   -0.72683E-01    80   0.518E+00    0.232E-01
DAV:   2    -0.513097416826E+02   -0.56255E-04   -0.11934E-02   120   0.585E-01    0.146E-01
DAV:   3    -0.513096050749E+02    0.13661E-03   -0.13838E-03   140   0.199E-01    0.716E-02
DAV:   4    -0.513099193565E+02   -0.31428E-03   -0.17944E-04   100   0.814E-02    0.310E-02
DAV:   5    -0.513101368773E+02   -0.21752E-03   -0.54207E-05   120   0.406E-02    0.152E-02
DAV:   6    -0.513102548798E+02   -0.11800E-03   -0.12652E-05   120   0.199E-02    0.521E-03
DAV:   7    -0.513103092673E+02   -0.54388E-04   -0.11423E-06   160   0.594E-03
  11 F= -.51310309E+02 E0= -.51310309E+02  d E =-.165930E-01  mag=     1.0000
       N       E                     dE             d eps       ncg     rms          rms(c)
DAV:   1    -0.513176593988E+02   -0.74045E-02   -0.34333E-01    80   0.352E+00    0.162E-01
DAV:   2    -0.513178593834E+02   -0.19998E-03   -0.58525E-03   140   0.419E-01    0.105E-01
DAV:   3    -0.513177629601E+02    0.96423E-04   -0.41391E-04   160   0.107E-01
  12 F= -.51317763E+02 E0= -.51317763E+02  d E =-.745369E-02  mag=     1.0000
       N       E                     dE             d eps       ncg     rms          rms(c)
DAV:   1    -0.513204547301E+02   -0.25953E-02   -0.41685E-01    80   0.389E+00    0.183E-01
DAV:   2    -0.513207608731E+02   -0.30614E-03   -0.67624E-03   160   0.450E-01    0.119E-01
DAV:   3    -0.513206256898E+02    0.13518E-03   -0.48406E-04   140   0.114E-01    0.493E-02
DAV:   4    -0.513207517881E+02   -0.12610E-03   -0.10965E-04   140   0.590E-02    0.154E-02
DAV:   5    -0.513208529957E+02   -0.10121E-03   -0.21629E-05   100   0.267E-02    0.739E-03
DAV:   6    -0.513209057911E+02   -0.52795E-04   -0.31781E-06   160   0.103E-02
  13 F= -.51320906E+02 E0= -.51320906E+02  d E =-.105965E-01  mag=     1.0000
       N       E                     dE             d eps       ncg     rms          rms(c)
DAV:   1    -0.513284512817E+02   -0.75983E-02   -0.50353E-01    80   0.424E+00    0.182E-01
DAV:   2    -0.513287849499E+02   -0.33367E-03   -0.65753E-03   160   0.455E-01    0.120E-01
DAV:   3    -0.513286993359E+02    0.85614E-04   -0.68743E-04   140   0.145E-01
  14 F= -.51328699E+02 E0= -.51328699E+02  d E =-.779354E-02  mag=     1.0000
       N       E                     dE             d eps       ncg     rms          rms(c)
DAV:   1    -0.513314951636E+02   -0.27102E-02   -0.72100E-01    80   0.509E+00    0.220E-01
DAV:   2    -0.513320801153E+02   -0.58495E-03   -0.92300E-03   140   0.535E-01    0.144E-01
DAV:   3    -0.513319779330E+02    0.10218E-03   -0.89361E-04   160   0.164E-01    0.583E-02
DAV:   4    -0.513320952275E+02   -0.11729E-03   -0.21693E-04   120   0.865E-02    0.196E-02
DAV:   5    -0.513321458345E+02   -0.50607E-04   -0.32634E-05   100   0.338E-02
  15 F= -.51332146E+02 E0= -.51332146E+02  d E =-.112400E-01  mag=     1.0000
       N       E                     dE             d eps       ncg     rms          rms(c)
DAV:   1    -0.513391890275E+02   -0.70938E-02   -0.54782E-01    80   0.425E+00    0.205E-01
DAV:   2    -0.513395781323E+02   -0.38910E-03   -0.80548E-03   160   0.500E-01    0.130E-01
DAV:   3    -0.513394643852E+02    0.11375E-03   -0.86166E-04   160   0.156E-01    0.521E-02
DAV:   4    -0.513395379384E+02   -0.73553E-04   -0.14260E-04   160   0.711E-02
  16 F= -.51339538E+02 E0= -.51339538E+02  d E =-.739210E-02  mag=     1.0000
       N       E                     dE             d eps       ncg     rms          rms(c)
DAV:   1    -0.513423861367E+02   -0.29218E-02   -0.80162E-01    80   0.514E+00    0.250E-01
DAV:   2    -0.513429181853E+02   -0.53205E-03   -0.11380E-02    80   0.601E-01    0.155E-01
DAV:   3    -0.513427256360E+02    0.19255E-03   -0.11127E-03    80   0.203E-01    0.642E-02
DAV:   4    -0.513428653307E+02   -0.13969E-03   -0.38140E-04   100   0.113E-01    0.271E-02
DAV:   5    -0.513429213727E+02   -0.56042E-04   -0.38840E-05   120   0.389E-02
  17 F= -.51342921E+02 E0= -.51342921E+02  d E =-.107755E-01  mag=     1.0000
       N       E                     dE             d eps       ncg     rms          rms(c)
DAV:   1    -0.513500326392E+02   -0.71673E-02   -0.45697E-01    80   0.401E+00    0.210E-01
DAV:   2    -0.513504289811E+02   -0.39634E-03   -0.77774E-03   120   0.488E-01    0.131E-01
DAV:   3    -0.513503051423E+02    0.12384E-03   -0.78594E-04    80   0.159E-01    0.595E-02
DAV:   4    -0.513504065471E+02   -0.10140E-03   -0.27611E-04   160   0.946E-02    0.241E-02
DAV:   5    -0.513504816014E+02   -0.75054E-04   -0.33036E-05    80   0.351E-02
  18 F= -.51350482E+02 E0= -.51350482E+02  d E =-.756023E-02  mag=     1.0000
       N       E                     dE             d eps       ncg     rms          rms(c)
DAV:   1    -0.513525462658E+02   -0.21397E-02   -0.41631E-01    80   0.383E+00    0.200E-01
DAV:   2    -0.513529409891E+02   -0.39472E-03   -0.73156E-03   120   0.473E-01    0.125E-01
DAV:   3    -0.513528303328E+02    0.11066E-03   -0.72240E-04    80   0.152E-01    0.571E-02
DAV:   4    -0.513529219627E+02   -0.91630E-04   -0.25962E-04   120   0.916E-02
  19 F= -.51352922E+02 E0= -.51352922E+02  d E =-.100006E-01  mag=     1.0000
       N       E                     dE             d eps       ncg     rms          rms(c)
DAV:   1    -0.513567760724E+02   -0.39457E-02   -0.63493E-01    80   0.473E+00    0.210E-01
DAV:   2    -0.513573417658E+02   -0.56569E-03   -0.93863E-03   120   0.523E-01    0.137E-01
DAV:   3    -0.513571705063E+02    0.17126E-03   -0.65034E-04   140   0.140E-01    0.500E-02
DAV:   4    -0.513572911499E+02   -0.12064E-03   -0.15441E-04   140   0.716E-02    0.167E-02
DAV:   5    -0.513573680676E+02   -0.76918E-04   -0.17614E-05    80   0.265E-02
  20 F= -.51357368E+02 E0= -.51357368E+02  d E =-.444610E-02  mag=     1.0000
       N       E                     dE             d eps       ncg     rms          rms(c)
DAV:   1    -0.513574628980E+02   -0.17175E-03   -0.75451E-03   160   0.514E-01    0.240E-02
DAV:   2    -0.513574879405E+02   -0.25042E-04   -0.73940E-05   160   0.448E-02
  21 F= -.51357488E+02 E0= -.51357488E+02  d E =-.456598E-02  mag=     1.0000
       N       E                     dE             d eps       ncg     rms          rms(c)
DAV:   1    -0.513627185428E+02   -0.52556E-02   -0.48334E-01    80   0.417E+00    0.193E-01
DAV:   2    -0.513630334756E+02   -0.31493E-03   -0.64913E-03   140   0.446E-01    0.124E-01
DAV:   3    -0.513629778596E+02    0.55616E-04   -0.58871E-04   160   0.132E-01
  22 F= -.51362978E+02 E0= -.51362978E+02  d E =-.548992E-02  mag=     1.0000
       N       E                     dE             d eps       ncg     rms          rms(c)
DAV:   1    -0.513665912815E+02   -0.35578E-02   -0.32486E+00    80   0.108E+01    0.492E-01
DAV:   2    -0.513692835986E+02   -0.26923E-02   -0.43004E-02   120   0.115E+00    0.314E-01
DAV:   3    -0.513687511599E+02    0.53244E-03   -0.33727E-03   140   0.331E-01    0.133E-01
DAV:   4    -0.513692301111E+02   -0.47895E-03   -0.96958E-04   160   0.184E-01    0.436E-02
DAV:   5    -0.513694935137E+02   -0.26340E-03   -0.12367E-04    80   0.669E-02    0.242E-02
DAV:   6    -0.513696416981E+02   -0.14818E-03   -0.62723E-05    80   0.406E-02    0.931E-03
DAV:   7    -0.513696887183E+02   -0.47020E-04   -0.64277E-06   160   0.146E-02
  23 F= -.51369689E+02 E0= -.51369689E+02  d E =-.122008E-01  mag=     1.0000
       N       E                     dE             d eps       ncg     rms          rms(c)
DAV:   1    -0.513738579753E+02   -0.42163E-02   -0.70290E-01    80   0.496E+00    0.256E-01
DAV:   2    -0.513743024497E+02   -0.44447E-03   -0.12604E-02   160   0.599E-01    0.163E-01
DAV:   3    -0.513741339674E+02    0.16848E-03   -0.85804E-04   100   0.151E-01    0.682E-02
DAV:   4    -0.513742435084E+02   -0.10954E-03   -0.19900E-04   160   0.839E-02    0.265E-02
DAV:   5    -0.513743726219E+02   -0.12911E-03   -0.33552E-05   120   0.360E-02    0.119E-02
DAV:   6    -0.513744228071E+02   -0.50185E-04   -0.49981E-06   160   0.128E-02
  24 F= -.51374423E+02 E0= -.51374423E+02  d E =-.473409E-02  mag=     1.0000
       N       E                     dE             d eps       ncg     rms          rms(c)
DAV:   1    -0.513745414959E+02   -0.16887E-03   -0.20764E-02   120   0.852E-01    0.443E-02
DAV:   2    -0.513745631831E+02   -0.21687E-04   -0.30479E-04   160   0.929E-02
  25 F= -.51374563E+02 E0= -.51374563E+02  d E =-.487446E-02  mag=     1.0000
       N       E                     dE             d eps       ncg     rms          rms(c)
DAV:   1    -0.513767750258E+02   -0.22335E-02   -0.29333E-01    80   0.323E+00    0.172E-01
DAV:   2    -0.513768075695E+02   -0.32544E-04   -0.44540E-03   140   0.364E-01    0.107E-01
DAV:   3    -0.513767122190E+02    0.95351E-04   -0.77223E-04   160   0.134E-01
  26 F= -.51376712E+02 E0= -.51376712E+02  d E =-.214904E-02  mag=     1.0000
       N       E                     dE             d eps       ncg     rms          rms(c)
DAV:   1    -0.513768217936E+02   -0.14224E-04   -0.42112E-03   120   0.389E-01    0.328E-02
DAV:   2    -0.513768632104E+02   -0.41417E-04   -0.62709E-05   120   0.446E-02
  27 F= -.51376863E+02 E0= -.51376863E+02  d E =-.230003E-02  mag=     1.0000
       N       E                     dE             d eps       ncg     rms          rms(c)
DAV:   1    -0.513776708326E+02   -0.84904E-03   -0.10049E-01    80   0.191E+00    0.781E-02
DAV:   2    -0.513777770447E+02   -0.10621E-03   -0.15478E-03   160   0.225E-01    0.557E-02
DAV:   3    -0.513777665660E+02    0.10479E-04   -0.18099E-04   160   0.712E-02
  28 F= -.51377767E+02 E0= -.51377767E+02  d E =-.903356E-03  mag=     1.0000
       N       E                     dE             d eps       ncg     rms          rms(c)
DAV:   1    -0.513777967822E+02   -0.19738E-04   -0.75915E-04   140   0.173E-01    0.141E-02
DAV:   2    -0.513778075032E+02   -0.10721E-04   -0.87608E-06   140   0.138E-02
  29 F= -.51377808E+02 E0= -.51377808E+02  d E =-.944293E-03  mag=     1.0000
       N       E                     dE             d eps       ncg     rms          rms(c)
DAV:   1    -0.513781044719E+02   -0.30769E-03   -0.24909E-02   120   0.930E-01    0.396E-02
DAV:   2    -0.513781162586E+02   -0.11787E-04   -0.27756E-04   160   0.897E-02
  30 F= -.51378116E+02 E0= -.51378116E+02  d E =-.308755E-03  mag=     1.0000
       N       E                     dE             d eps       ncg     rms          rms(c)
DAV:   1    -0.513781217475E+02   -0.17276E-04   -0.57217E-04   120   0.148E-01    0.163E-02
DAV:   2    -0.513781256606E+02   -0.39131E-05   -0.48943E-06   160   0.141E-02
  31 F= -.51378126E+02 E0= -.51378126E+02  d E =-.318157E-03  mag=     1.0000
       N       E                     dE             d eps       ncg     rms          rms(c)
DAV:   1    -0.513782982247E+02   -0.17648E-03   -0.14157E-02    80   0.746E-01    0.326E-02
DAV:   2    -0.513783133800E+02   -0.15155E-04   -0.23981E-04   160   0.890E-02
  32 F= -.51378313E+02 E0= -.51378313E+02  d E =-.187719E-03  mag=     1.0000
