    5    5  800    2
  0.2666708E+03  0.9223323E-09  0.9266297E-09  0.1560317E-08  0.5000000E-15
  1.000000000000000E-004
  CAR 
 unknown system                          
     34      8     24
