       N       E                     dE             d eps       ncg     rms          rms(c)
DAV:   1     0.260891181166E+03    0.26089E+03   -0.89129E+03   952   0.856E+02
DAV:   2     0.506169144028E+02   -0.21027E+03   -0.20236E+03  1264   0.150E+02
DAV:   3    -0.214235513702E+02   -0.72040E+02   -0.70865E+02  1000   0.953E+01
DAV:   4    -0.258800818868E+02   -0.44565E+01   -0.43634E+01   936   0.308E+01
DAV:   5    -0.259530433745E+02   -0.72961E-01   -0.72881E-01   800   0.411E+00    0.413E+01
RMM:   6    -0.216667755680E+02    0.42863E+01   -0.34048E+01   768   0.279E+01    0.201E+01
RMM:   7    -0.215048245855E+02    0.16195E+00   -0.15916E+01   768   0.190E+01    0.207E+01
RMM:   8    -0.206569877084E+02    0.84784E+00   -0.13017E+00   768   0.569E+00    0.568E+00
RMM:   9    -0.211214834278E+02   -0.46450E+00   -0.80828E-01   768   0.417E+00    0.220E+00
RMM:  10    -0.215026357493E+02   -0.38115E+00   -0.59299E-02   768   0.122E+00    0.124E+00
RMM:  11    -0.220938940332E+02   -0.59126E+00   -0.12096E-01   768   0.146E+00    0.545E-01
RMM:  12    -0.221849928469E+02   -0.91099E-01   -0.18520E-02   744   0.486E-01    0.259E-01
RMM:  13    -0.222557865068E+02   -0.70794E-01   -0.93526E-03   666   0.346E-01    0.143E-01
RMM:  14    -0.223751098490E+02   -0.11932E+00   -0.20535E-02   736   0.505E-01    0.685E-02
RMM:  15    -0.224135643471E+02   -0.38454E-01   -0.68343E-03   664   0.284E-01    0.419E-02
RMM:  16    -0.224358975821E+02   -0.22333E-01   -0.37803E-03   664   0.196E-01    0.258E-02
RMM:  17    -0.224408567396E+02   -0.49592E-02   -0.12090E-03   575   0.983E-02    0.932E-03
RMM:  18    -0.224413320306E+02   -0.47529E-03   -0.24297E-04   477   0.494E-02    0.740E-03
RMM:  19    -0.224414835104E+02   -0.15148E-03   -0.54034E-05   381   0.293E-02
   1 F= -.22441484E+02 E0= -.22445405E+02  d E =-.224415E+02  mag=     1.9994
       N       E                     dE             d eps       ncg     rms          rms(c)
DAV:   1    -0.268096048420E+02   -0.43683E+01   -0.38528E+02   768   0.119E+02    0.221E+01
RMM:   2    -0.436345406777E+02   -0.16825E+02   -0.62773E+01   768   0.338E+01    0.334E+01
RMM:   3    -0.233994697321E+02    0.20235E+02   -0.10297E+01   768   0.148E+01    0.202E+01
RMM:   4    -0.209349029581E+02    0.24646E+01   -0.15004E+00   768   0.460E+00    0.143E+01
RMM:   5    -0.205370166769E+02    0.39789E+00   -0.57519E-01   768   0.338E+00    0.103E+01
RMM:   6    -0.221088826477E+02   -0.15719E+01   -0.16055E+00   768   0.568E+00    0.122E+01
RMM:   7    -0.201637444411E+02    0.19451E+01   -0.88165E-01   768   0.367E+00    0.203E+00
RMM:   8    -0.201763374336E+02   -0.12593E-01   -0.63986E-02   774   0.105E+00    0.111E+00
RMM:   9    -0.201499355002E+02    0.26402E-01   -0.25404E-02   768   0.753E-01    0.861E-01
RMM:  10    -0.201324655005E+02    0.17470E-01   -0.12142E-02   768   0.497E-01    0.672E-01
RMM:  11    -0.201392337380E+02   -0.67682E-02   -0.80999E-03   760   0.393E-01    0.600E-01
RMM:  12    -0.201644176247E+02   -0.25184E-01   -0.33821E-02   768   0.808E-01    0.325E-01
RMM:  13    -0.201973126405E+02   -0.32895E-01   -0.65551E-03   720   0.365E-01    0.137E-01
RMM:  14    -0.202340079073E+02   -0.36695E-01   -0.41879E-03   696   0.304E-01    0.128E-01
RMM:  15    -0.202460835373E+02   -0.12076E-01   -0.28251E-03   696   0.246E-01    0.807E-02
RMM:  16    -0.202701049556E+02   -0.24021E-01   -0.14294E-03   668   0.185E-01    0.350E-02
RMM:  17    -0.202872730060E+02   -0.17168E-01   -0.10779E-03   632   0.149E-01    0.379E-02
RMM:  18    -0.202990348782E+02   -0.11762E-01   -0.58737E-04   572   0.101E-01    0.221E-02
RMM:  19    -0.203026418279E+02   -0.36069E-02   -0.17976E-04   422   0.555E-02    0.888E-03
RMM:  20    -0.203034092183E+02   -0.76739E-03   -0.14337E-04   400   0.404E-02    0.651E-03
RMM:  21    -0.203033852478E+02    0.23970E-04   -0.45022E-05   318   0.265E-02
   2 F= -.20303385E+02 E0= -.20307275E+02  d E =0.213810E+01  mag=     2.0001
       N       E                     dE             d eps       ncg     rms          rms(c)
DAV:   1    -0.240839991875E+02   -0.37806E+01   -0.13501E+02   768   0.692E+01    0.148E+01
RMM:   2    -0.231105359733E+02    0.97346E+00   -0.85372E+00   768   0.156E+01    0.104E+01
RMM:   3    -0.228191395846E+02    0.29140E+00   -0.48005E+00   768   0.985E+00    0.977E+00
RMM:   4    -0.217718986868E+02    0.10472E+01   -0.77160E-01   768   0.444E+00    0.252E+00
RMM:   5    -0.219142849330E+02   -0.14239E+00   -0.18108E-01   768   0.202E+00    0.141E+00
RMM:   6    -0.220553821295E+02   -0.14110E+00   -0.19385E-02   768   0.756E-01    0.522E-01
RMM:   7    -0.221581909867E+02   -0.10281E+00   -0.11187E-02   768   0.492E-01    0.230E-01
RMM:   8    -0.222154900153E+02   -0.57299E-01   -0.26791E-03   752   0.247E-01    0.113E-01
RMM:   9    -0.222615257031E+02   -0.46036E-01   -0.11619E-03   624   0.157E-01    0.711E-02
RMM:  10    -0.223228353864E+02   -0.61310E-01   -0.11646E-03   626   0.139E-01    0.345E-02
RMM:  11    -0.223427579661E+02   -0.19923E-01   -0.58950E-04   558   0.864E-02    0.214E-02
RMM:  12    -0.223498892907E+02   -0.71313E-02   -0.51697E-04   568   0.713E-02    0.132E-02
RMM:  13    -0.223510673179E+02   -0.11780E-02   -0.15710E-04   407   0.412E-02    0.738E-03
RMM:  14    -0.223503428414E+02    0.72448E-03   -0.15456E-04   443   0.399E-02    0.498E-03
RMM:  15    -0.223503022962E+02    0.40545E-04   -0.35885E-05   292   0.235E-02
   3 F= -.22350302E+02 E0= -.22354198E+02  d E =0.911812E-01  mag=     2.0001
       N       E                     dE             d eps       ncg     rms          rms(c)
DAV:   1    -0.228648609510E+02   -0.51452E+00   -0.15068E+01   848   0.241E+01    0.560E+00
RMM:   2    -0.227984631120E+02    0.66398E-01   -0.74814E-01   768   0.476E+00    0.364E+00
RMM:   3    -0.227662038947E+02    0.32259E-01   -0.50268E-01   768   0.321E+00    0.374E+00
RMM:   4    -0.226612498042E+02    0.10495E+00   -0.97232E-02   768   0.155E+00    0.946E-01
RMM:   5    -0.226604599735E+02    0.78983E-03   -0.11730E-02   768   0.520E-01    0.365E-01
RMM:   6    -0.226620921062E+02   -0.16321E-02   -0.73170E-04   586   0.168E-01    0.135E-01
RMM:   7    -0.226633908705E+02   -0.12988E-02   -0.27393E-04   480   0.102E-01    0.483E-02
RMM:   8    -0.226638899625E+02   -0.49909E-03   -0.79476E-05   450   0.472E-02    0.222E-02
RMM:   9    -0.226641997836E+02   -0.30982E-03   -0.47187E-05   436   0.334E-02    0.138E-02
RMM:  10    -0.226644110963E+02   -0.21131E-03   -0.43180E-05   416   0.295E-02    0.645E-03
RMM:  11    -0.226644976561E+02   -0.86560E-04   -0.15788E-05   281   0.197E-02
   4 F= -.22664498E+02 E0= -.22668403E+02  d E =-.223014E+00  mag=     2.0001
       N       E                     dE             d eps       ncg     rms          rms(c)
DAV:   1    -0.227205817942E+02   -0.56171E-01   -0.21772E+00   768   0.926E+00    0.228E+00
RMM:   2    -0.227084831233E+02    0.12099E-01   -0.98562E-02   768   0.177E+00    0.131E+00
RMM:   3    -0.227075502648E+02    0.93286E-03   -0.71928E-02   768   0.123E+00    0.152E+00
RMM:   4    -0.226914663894E+02    0.16084E-01   -0.15169E-02   768   0.612E-01    0.372E-01
RMM:   5    -0.226913927901E+02    0.73599E-04   -0.15741E-03   674   0.193E-01
   5 F= -.22691393E+02 E0= -.22695302E+02  d E =-.249909E+00  mag=     2.0001
       N       E                     dE             d eps       ncg     rms          rms(c)
DAV:   1    -0.236439313725E+02   -0.95246E+00   -0.92728E+01   768   0.524E+01    0.787E+00
RMM:   2    -0.229490801698E+02    0.69485E+00   -0.40457E+00   768   0.121E+01    0.442E+00
RMM:   3    -0.227970623959E+02    0.15202E+00   -0.78193E-01   768   0.408E+00    0.313E+00
RMM:   4    -0.226987410526E+02    0.98321E-01   -0.25950E-01   768   0.254E+00    0.170E+00
RMM:   5    -0.226863395609E+02    0.12401E-01   -0.32946E-02   768   0.868E-01    0.848E-01
RMM:   6    -0.226857177067E+02    0.62185E-03   -0.45759E-03   768   0.372E-01    0.340E-01
RMM:   7    -0.226865158114E+02   -0.79810E-03   -0.12811E-03   678   0.193E-01    0.101E-01
RMM:   8    -0.226870874799E+02   -0.57167E-03   -0.20287E-04   480   0.784E-02    0.604E-02
RMM:   9    -0.226881458646E+02   -0.10584E-02   -0.24557E-04   452   0.724E-02    0.300E-02
RMM:  10    -0.226887221726E+02   -0.57631E-03   -0.82933E-05   432   0.466E-02    0.153E-02
RMM:  11    -0.226893802203E+02   -0.65805E-03   -0.98093E-05   464   0.473E-02    0.199E-02
RMM:  12    -0.226896837184E+02   -0.30350E-03   -0.44833E-05   358   0.297E-02    0.103E-02
RMM:  13    -0.226898685139E+02   -0.18480E-03   -0.22782E-05   309   0.232E-02
   6 F= -.22689869E+02 E0= -.22693750E+02  d E =0.152428E-02  mag=     2.0000
       N       E                     dE             d eps       ncg     rms          rms(c)
DAV:   1    -0.231321238451E+02   -0.44244E+00   -0.23504E+01   768   0.253E+01    0.492E+00
RMM:   2    -0.229103075423E+02    0.22182E+00   -0.11102E+00   768   0.589E+00    0.204E+00
RMM:   3    -0.228744000998E+02    0.35907E-01   -0.21907E-01   768   0.215E+00    0.145E+00
RMM:   4    -0.228576736931E+02    0.16726E-01   -0.48654E-02   768   0.112E+00    0.105E+00
RMM:   5    -0.228537491424E+02    0.39246E-02   -0.13167E-02   768   0.530E-01    0.429E-01
RMM:   6    -0.228549364219E+02   -0.11873E-02   -0.17604E-03   760   0.230E-01    0.181E-01
RMM:   7    -0.228555841519E+02   -0.64773E-03   -0.28487E-04   480   0.995E-02    0.435E-02
RMM:   8    -0.228559148861E+02   -0.33073E-03   -0.96744E-05   448   0.571E-02    0.267E-02
RMM:   9    -0.228562720088E+02   -0.35712E-03   -0.69594E-05   446   0.437E-02    0.144E-02
RMM:  10    -0.228565479828E+02   -0.27597E-03   -0.49496E-05   432   0.334E-02    0.903E-03
RMM:  11    -0.228567092236E+02   -0.16124E-03   -0.28231E-05   382   0.232E-02
   7 F= -.22856709E+02 E0= -.22860601E+02  d E =-.165316E+00  mag=     2.0001
       N       E                     dE             d eps       ncg     rms          rms(c)
DAV:   1    -0.229341034367E+02   -0.77555E-01   -0.65228E+00   768   0.136E+01    0.117E+00
RMM:   2    -0.229313919439E+02    0.27115E-02   -0.20146E-01   768   0.274E+00    0.813E-01
RMM:   3    -0.229264349662E+02    0.49570E-02   -0.20207E-02   768   0.775E-01    0.523E-01
RMM:   4    -0.229222789957E+02    0.41560E-02   -0.54328E-03   768   0.375E-01    0.334E-01
RMM:   5    -0.229204109944E+02    0.18680E-02   -0.34664E-03   768   0.298E-01    0.131E-01
RMM:   6    -0.229203257055E+02    0.85289E-04   -0.40293E-04   486   0.116E-01
   8 F= -.22920326E+02 E0= -.22924208E+02  d E =-.636165E-01  mag=     2.0000
       N       E                     dE             d eps       ncg     rms          rms(c)
DAV:   1    -0.231641433111E+02   -0.24373E+00   -0.59197E+01   768   0.412E+01    0.350E+00
RMM:   2    -0.231272499303E+02    0.36893E-01   -0.19467E+00   768   0.831E+00    0.231E+00
RMM:   3    -0.230822149269E+02    0.45035E-01   -0.16967E-01   768   0.228E+00    0.155E+00
RMM:   4    -0.230505438165E+02    0.31671E-01   -0.49283E-02   768   0.112E+00    0.106E+00
RMM:   5    -0.230333405049E+02    0.17203E-01   -0.32944E-02   768   0.915E-01    0.399E-01
RMM:   6    -0.230334656815E+02   -0.12518E-03   -0.48087E-03   768   0.364E-01    0.157E-01
RMM:   7    -0.230343177129E+02   -0.85203E-03   -0.55075E-04   536   0.129E-01    0.831E-02
RMM:   8    -0.230362554232E+02   -0.19377E-02   -0.10647E-03   683   0.135E-01    0.358E-02
RMM:   9    -0.230368766529E+02   -0.62123E-03   -0.74453E-05   454   0.502E-02    0.252E-02
RMM:  10    -0.230382999846E+02   -0.14233E-02   -0.23608E-04   484   0.638E-02    0.134E-02
RMM:  11    -0.230390180997E+02   -0.71812E-03   -0.91960E-05   428   0.375E-02    0.121E-02
RMM:  12    -0.230395358324E+02   -0.51773E-03   -0.77085E-05   396   0.314E-02    0.603E-03
RMM:  13    -0.230398742523E+02   -0.33842E-03   -0.10469E-04   448   0.355E-02    0.544E-03
RMM:  14    -0.230399134082E+02   -0.39156E-04   -0.14540E-05   246   0.173E-02
   9 F= -.23039913E+02 E0= -.23043797E+02  d E =-.183204E+00  mag=     2.0000
       N       E                     dE             d eps       ncg     rms          rms(c)
DAV:   1    -0.230835660395E+02   -0.43692E-01   -0.13425E+01   768   0.195E+01    0.163E+00
RMM:   2    -0.230725921581E+02    0.10974E-01   -0.42638E-01   768   0.392E+00    0.110E+00
RMM:   3    -0.230625649231E+02    0.10027E-01   -0.38019E-02   768   0.107E+00    0.746E-01
RMM:   4    -0.230551709620E+02    0.73940E-02   -0.11841E-02   768   0.548E-01    0.497E-01
RMM:   5    -0.230514411971E+02    0.37298E-02   -0.66921E-03   768   0.415E-01    0.194E-01
RMM:   6    -0.230513519675E+02    0.89230E-04   -0.92912E-04   628   0.164E-01
  10 F= -.23051352E+02 E0= -.23055254E+02  d E =-.194643E+00  mag=     2.0000
       N       E                     dE             d eps       ncg     rms          rms(c)
DAV:   1    -0.230603660965E+02   -0.89249E-02   -0.17167E+01   768   0.254E+01    0.323E+00
RMM:   2    -0.230208045135E+02    0.39562E-01   -0.56198E-01   768   0.472E+00    0.168E+00
RMM:   3    -0.230105581218E+02    0.10246E-01   -0.12263E-01   768   0.177E+00    0.197E+00
RMM:   4    -0.229807866955E+02    0.29771E-01   -0.28946E-02   768   0.804E-01    0.844E-01
RMM:   5    -0.229772516521E+02    0.35350E-02   -0.15532E-02   768   0.598E-01    0.305E-01
RMM:   6    -0.229775552911E+02   -0.30364E-03   -0.11017E-03   706   0.192E-01    0.125E-01
RMM:   7    -0.229785631012E+02   -0.10078E-02   -0.44225E-04   514   0.105E-01    0.394E-02
RMM:   8    -0.229795624637E+02   -0.99936E-03   -0.17762E-04   460   0.601E-02    0.212E-02
RMM:   9    -0.229802967690E+02   -0.73431E-03   -0.70816E-05   416   0.373E-02    0.140E-02
RMM:  10    -0.229812205767E+02   -0.92381E-03   -0.10065E-04   432   0.396E-02    0.885E-03
RMM:  11    -0.229815150486E+02   -0.29447E-03   -0.37638E-05   304   0.231E-02    0.669E-03
RMM:  12    -0.229818252336E+02   -0.31019E-03   -0.63509E-05   376   0.294E-02    0.412E-03
RMM:  13    -0.229818992509E+02   -0.74017E-04   -0.21360E-05   270   0.202E-02
  11 F= -.22981899E+02 E0= -.22985815E+02  d E =0.694527E-01  mag=     2.0001
       N       E                     dE             d eps       ncg     rms          rms(c)
DAV:   1    -0.231045046306E+02   -0.12268E+00   -0.90074E+00   768   0.184E+01    0.218E+00
RMM:   2    -0.230833676750E+02    0.21137E-01   -0.30449E-01   768   0.358E+00    0.114E+00
RMM:   3    -0.230763419197E+02    0.70258E-02   -0.51604E-02   768   0.118E+00    0.127E+00
RMM:   4    -0.230643535038E+02    0.11988E-01   -0.13798E-02   768   0.559E-01    0.527E-01
RMM:   5    -0.230622970482E+02    0.20565E-02   -0.53148E-03   768   0.359E-01    0.229E-01
RMM:   6    -0.230623255150E+02   -0.28467E-04   -0.34095E-04   480   0.114E-01
  12 F= -.23062326E+02 E0= -.23066231E+02  d E =-.109735E-01  mag=     2.0000
       N       E                     dE             d eps       ncg     rms          rms(c)
DAV:   1    -0.231868365515E+02   -0.12454E+00   -0.49458E+00   864   0.131E+01    0.317E+00
RMM:   2    -0.230907726266E+02    0.96064E-01   -0.33713E-01   768   0.322E+00    0.142E+00
RMM:   3    -0.230797915889E+02    0.10981E-01   -0.11262E-01   768   0.149E+00    0.140E+00
RMM:   4    -0.230638322868E+02    0.15959E-01   -0.23383E-02   768   0.767E-01    0.443E-01
RMM:   5    -0.230639611118E+02   -0.12883E-03   -0.23201E-03   770   0.227E-01    0.252E-01
RMM:   6    -0.230642737801E+02   -0.31267E-03   -0.50638E-04   524   0.127E-01    0.831E-02
RMM:   7    -0.230645101608E+02   -0.23638E-03   -0.14307E-04   440   0.742E-02    0.234E-02
RMM:   8    -0.230646503639E+02   -0.14020E-03   -0.48240E-05   432   0.397E-02
  13 F= -.23064650E+02 E0= -.23068558E+02  d E =-.232485E-02  mag=     2.0000
       N       E                     dE             d eps       ncg     rms          rms(c)
DAV:   1    -0.230981176676E+02   -0.33608E-01   -0.10161E+00   912   0.596E+00    0.137E+00
RMM:   2    -0.230787587027E+02    0.19359E-01   -0.68686E-02   768   0.147E+00    0.659E-01
RMM:   3    -0.230765294221E+02    0.22293E-02   -0.23193E-02   768   0.676E-01    0.654E-01
RMM:   4    -0.230728739808E+02    0.36554E-02   -0.55103E-03   768   0.370E-01    0.200E-01
RMM:   5    -0.230728063368E+02    0.67644E-04   -0.35242E-04   493   0.992E-02
  14 F= -.23072806E+02 E0= -.23076713E+02  d E =-.104808E-01  mag=     2.0001
       N       E                     dE             d eps       ncg     rms          rms(c)
DAV:   1    -0.230737027556E+02   -0.82877E-03   -0.38781E-02   880   0.115E+00    0.274E-01
RMM:   2    -0.230728635263E+02    0.83923E-03   -0.26349E-03   768   0.279E-01    0.129E-01
RMM:   3    -0.230727478980E+02    0.11563E-03   -0.75365E-04   602   0.123E-01
  15 F= -.23072748E+02 E0= -.23076654E+02  d E =-.104224E-01  mag=     2.0000
       N       E                     dE             d eps       ncg     rms          rms(c)
DAV:   1    -0.230727084138E+02    0.15511E-03   -0.86412E-03   912   0.536E-01    0.139E-01
RMM:   2    -0.230724769907E+02    0.23142E-03   -0.61666E-04   494   0.141E-01    0.691E-02
RMM:   3    -0.230724477312E+02    0.29259E-04   -0.25647E-04   440   0.779E-02
  16 F= -.23072448E+02 E0= -.23076354E+02  d E =-.101222E-01  mag=     2.0000
       N       E                     dE             d eps       ncg     rms          rms(c)
DAV:   1    -0.230727007551E+02   -0.22376E-03   -0.44530E-03   992   0.403E-01    0.969E-02
RMM:   2    -0.230726553772E+02    0.45378E-04   -0.26549E-04   432   0.986E-02
  17 F= -.23072655E+02 E0= -.23076561E+02  d E =-.103299E-01  mag=     2.0000
       N       E                     dE             d eps       ncg     rms          rms(c)
DAV:   1    -0.230727697432E+02   -0.68988E-04   -0.79497E-04   912   0.202E-01    0.753E-02
RMM:   2    -0.230727804417E+02   -0.10699E-04   -0.20181E-04   432   0.819E-02
  18 F= -.23072780E+02 E0= -.23076687E+02  d E =-.104549E-01  mag=     2.0000
       N       E                     dE             d eps       ncg     rms          rms(c)
DAV:   1    -0.230727637756E+02    0.59676E-05   -0.11314E-04   704   0.109E-01    0.310E-02
RMM:   2    -0.230727762233E+02   -0.12448E-04   -0.32740E-05   372   0.359E-02
  19 F= -.23072776E+02 E0= -.23076682E+02  d E =-.104507E-01  mag=     2.0000
       N       E                     dE             d eps       ncg     rms          rms(c)
DAV:   1    -0.230727851081E+02   -0.21333E-04   -0.19339E-05   704   0.409E-02    0.159E-02
RMM:   2    -0.230727956218E+02   -0.10514E-04   -0.59616E-06   280   0.188E-02
  20 F= -.23072796E+02 E0= -.23076702E+02  d E =-.104701E-01  mag=     2.0000
       N       E                     dE             d eps       ncg     rms          rms(c)
DAV:   1    -0.230727993986E+02   -0.14291E-04   -0.56493E-06   720   0.226E-02    0.682E-03
RMM:   2    -0.230728060714E+02   -0.66728E-05    0.00000E+00    92   0.860E-03
  21 F= -.23072806E+02 E0= -.23076712E+02  d E =-.104806E-01  mag=     2.0000
       N       E                     dE             d eps       ncg     rms          rms(c)
DAV:   1    -0.230728105662E+02   -0.11168E-04   -0.20505E-06   704   0.975E-03    0.383E-03
RMM:   2    -0.230728145649E+02   -0.39986E-05    0.00000E+00    82   0.563E-03
  22 F= -.23072815E+02 E0= -.23076721E+02  d E =-.104890E-01  mag=     2.0000
       N       E                     dE             d eps       ncg     rms          rms(c)
DAV:   1    -0.230728165119E+02   -0.59457E-05   -0.49059E-07   688   0.562E-03    0.169E-03
RMM:   2    -0.230728192533E+02   -0.27414E-05    0.00000E+00    76   0.298E-03
  23 F= -.23072819E+02 E0= -.23076725E+02  d E =-.104937E-01  mag=     2.0000
       N       E                     dE             d eps       ncg     rms          rms(c)
DAV:   1    -0.230728213581E+02   -0.48462E-05   -0.24692E-07   704   0.306E-03    0.992E-04
RMM:   2    -0.230728231255E+02   -0.17674E-05    0.00000E+00    71   0.167E-03
  24 F= -.23072823E+02 E0= -.23076729E+02  d E =-.104976E-01  mag=     2.0000
       N       E                     dE             d eps       ncg     rms          rms(c)
DAV:   1    -0.230728239924E+02   -0.26343E-05   -0.99857E-08   528   0.175E-03    0.486E-04
RMM:   2    -0.230728252818E+02   -0.12894E-05    0.00000E+00    66   0.103E-03
  25 F= -.23072825E+02 E0= -.23076731E+02  d E =-.104998E-01  mag=     2.0000
       N       E                     dE             d eps       ncg     rms          rms(c)
DAV:   1    -0.230728267002E+02   -0.27077E-05   -0.89485E-08   672   0.129E-03    0.319E-04
RMM:   2    -0.230728274928E+02   -0.79268E-06    0.00000E+00    64   0.845E-04
  26 F= -.23072827E+02 E0= -.23076734E+02  d E =-.105020E-01  mag=     2.0000
       N       E                     dE             d eps       ncg     rms          rms(c)
DAV:   1    -0.230728278471E+02   -0.11469E-05   -0.36433E-08   464   0.838E-04    0.166E-04
RMM:   2    -0.230728284451E+02   -0.59797E-06    0.00000E+00    64   0.519E-04
  27 F= -.23072828E+02 E0= -.23076735E+02  d E =-.105029E-01  mag=     2.0000
       N       E                     dE             d eps       ncg     rms          rms(c)
DAV:   1    -0.230728297087E+02   -0.18616E-05   -0.61885E-08   672   0.820E-04    0.114E-04
RMM:   2    -0.230728300048E+02   -0.29616E-06    0.00000E+00    62   0.442E-04
  28 F= -.23072830E+02 E0= -.23076736E+02  d E =-.105045E-01  mag=     2.0000
       N       E                     dE             d eps       ncg     rms          rms(c)
DAV:   1    -0.230728302043E+02   -0.49567E-06   -0.16912E-08   560   0.493E-04    0.610E-05
RMM:   2    -0.230728304237E+02   -0.21932E-06    0.00000E+00    52   0.293E-04
  29 F= -.23072830E+02 E0= -.23076737E+02  d E =-.105049E-01  mag=     2.0000
       N       E                     dE             d eps       ncg     rms          rms(c)
DAV:   1    -0.230728306677E+02   -0.46334E-06   -0.13526E-08   608   0.403E-04    0.676E-05
RMM:   2    -0.230728308118E+02   -0.14410E-06    0.00000E+00    62   0.265E-04
  30 F= -.23072831E+02 E0= -.23076737E+02  d E =-.105053E-01  mag=     2.0000
       N       E                     dE             d eps       ncg     rms          rms(c)
DAV:   1    -0.230896962073E+02   -0.16866E-01   -0.10172E+00   768   0.595E+00    0.134E+00
RMM:   2    -0.230703256712E+02    0.19371E-01   -0.69377E-02   768   0.149E+00    0.669E-01
RMM:   3    -0.230680001417E+02    0.23255E-02   -0.22498E-02   768   0.667E-01    0.647E-01
RMM:   4    -0.230642403944E+02    0.37597E-02   -0.56134E-03   768   0.373E-01    0.197E-01
RMM:   5    -0.230641814417E+02    0.58953E-04   -0.39907E-04   479   0.105E-01
  31 F= -.23064181E+02 E0= -.23068087E+02  d E =-.185593E-02  mag=     2.0000
