    3    3  800    2
  0.1125000E+04  0.1500000E-08  0.1500000E-08  0.1500000E-08  0.5000000E-15
  1.000000000000000E-004
  CAR 
 unknown system                          
     13      1     12
 
  0.0000000E+00  0.0000000E+00  0.0000000E+00  0.1000000E+01
    1      -30.075063    -29.499711
    2      -21.763259    -20.911337
    3      -13.941354    -13.571036
    4      -11.780744    -11.425792
    5      -11.772799    -10.414737
    6       -6.915216     -6.281226
    7       -6.711894     -4.889199
    8       -1.162674     -1.079636
    9       -0.145014      0.000422
   10        0.132744      0.236354
   11        0.494767      0.533269
   12        0.525981      0.554054
