       N       E                     dE             d eps       ncg     rms          rms(c)
DAV:   1     0.959414677896E+02    0.95941E+02   -0.25370E+03    80   0.393E+02
DAV:   2     0.136559334187E+02   -0.82286E+02   -0.80763E+02    88   0.119E+02
DAV:   3    -0.633302572126E+01   -0.19989E+02   -0.17459E+02    72   0.622E+01
DAV:   4    -0.116538250925E+02   -0.53208E+01   -0.52825E+01    64   0.175E+01
DAV:   5    -0.118884361152E+02   -0.23461E+00   -0.23459E+00    64   0.495E+00    0.108E+01
DAV:   6    -0.732298615507E+01    0.45654E+01   -0.81822E+00    72   0.191E+01    0.498E+00
DAV:   7    -0.103447407832E+02   -0.30218E+01   -0.20223E+00    76   0.809E+00    0.269E+00
DAV:   8    -0.114827408436E+02   -0.11380E+01   -0.35757E-01    68   0.370E+00    0.124E+00
DAV:   9    -0.120726292267E+02   -0.58989E+00   -0.10590E-01    72   0.208E+00    0.382E-01
DAV:  10    -0.123508081081E+02   -0.27818E+00   -0.12551E-02    80   0.735E-01    0.222E-01
DAV:  11    -0.125949906752E+02   -0.24418E+00   -0.52064E-03    68   0.444E-01    0.144E-01
DAV:  12    -0.129538355500E+02   -0.35884E+00   -0.97804E-03    76   0.433E-01    0.799E-02
DAV:  13    -0.130098081756E+02   -0.55973E-01   -0.21076E-03    76   0.258E-01    0.527E-02
DAV:  14    -0.130249959024E+02   -0.15188E-01   -0.81248E-04    84   0.155E-01    0.291E-02
DAV:  15    -0.130189996534E+02    0.59962E-02   -0.47675E-04    72   0.124E-01    0.223E-02
DAV:  16    -0.130224454245E+02   -0.34458E-02   -0.31179E-04    60   0.101E-01    0.173E-02
DAV:  17    -0.130286458983E+02   -0.62005E-02   -0.18660E-04    72   0.737E-02    0.115E-02
DAV:  18    -0.130335149875E+02   -0.48691E-02   -0.14947E-04    84   0.544E-02    0.666E-03
DAV:  19    -0.130339272901E+02   -0.41230E-03   -0.80997E-06    84   0.158E-02    0.559E-03
DAV:  20    -0.130340519194E+02   -0.12463E-03   -0.15814E-06    56   0.895E-03    0.360E-03
DAV:  21    -0.130342576817E+02   -0.20576E-03   -0.97741E-06    76   0.155E-02    0.272E-03
DAV:  22    -0.130342292597E+02    0.28422E-04   -0.81304E-07    72   0.641E-03
   1 F= -.13034229E+02 E0= -.13034229E+02  d E =-.130342E+02  mag=     1.0010
       N       E                     dE             d eps       ncg     rms          rms(c)
DAV:   1    -0.115268286677E+02    0.15074E+01   -0.29692E+02    52   0.152E+02    0.536E+00
DAV:   2    -0.119887877007E+02   -0.46196E+00   -0.78732E+00    60   0.237E+01    0.309E+00
DAV:   3    -0.120920094197E+02   -0.10322E+00   -0.73995E-01    72   0.623E+00    0.152E+00
DAV:   4    -0.121102747234E+02   -0.18265E-01   -0.69893E-02    80   0.247E+00    0.768E-01
DAV:   5    -0.121280676134E+02   -0.17793E-01   -0.95121E-03    76   0.891E-01    0.296E-01
DAV:   6    -0.121342104954E+02   -0.61429E-02   -0.65773E-03    64   0.661E-01    0.107E-01
DAV:   7    -0.121372281195E+02   -0.30176E-02   -0.81067E-04    72   0.256E-01    0.560E-02
DAV:   8    -0.121384966866E+02   -0.12686E-02   -0.24172E-04    52   0.127E-01    0.273E-02
DAV:   9    -0.121398064166E+02   -0.13097E-02   -0.11887E-04    68   0.686E-02    0.154E-02
DAV:  10    -0.121404632175E+02   -0.65680E-03   -0.62870E-05    68   0.428E-02    0.802E-03
DAV:  11    -0.121409050127E+02   -0.44180E-03   -0.47237E-05    64   0.314E-02    0.588E-03
DAV:  12    -0.121412335722E+02   -0.32856E-03   -0.57994E-05    68   0.294E-02    0.403E-03
DAV:  13    -0.121413320118E+02   -0.98440E-04   -0.56999E-06    80   0.122E-02
   2 F= -.12141332E+02 E0= -.12141332E+02  d E =0.892897E+00  mag=     1.0000
       N       E                     dE             d eps       ncg     rms          rms(c)
DAV:   1    -0.131151650617E+02   -0.97393E+00   -0.20349E+02    64   0.124E+02    0.495E+00
DAV:   2    -0.130679400476E+02    0.47225E-01   -0.37796E+00    84   0.169E+01    0.212E+00
DAV:   3    -0.131501018983E+02   -0.82162E-01   -0.19604E-01    76   0.412E+00    0.103E+00
DAV:   4    -0.131718217763E+02   -0.21720E-01   -0.22015E-02    72   0.119E+00    0.467E-01
DAV:   5    -0.131818550741E+02   -0.10033E-01   -0.11154E-02    72   0.873E-01    0.195E-01
DAV:   6    -0.131867453519E+02   -0.48903E-02   -0.11774E-03    84   0.345E-01    0.651E-02
DAV:   7    -0.131880845300E+02   -0.13392E-02   -0.47748E-04    88   0.172E-01    0.316E-02
DAV:   8    -0.131892025253E+02   -0.11180E-02   -0.66619E-05    72   0.693E-02    0.155E-02
DAV:   9    -0.131899213637E+02   -0.71884E-03   -0.32138E-05    76   0.358E-02    0.811E-03
DAV:  10    -0.131903163158E+02   -0.39495E-03   -0.19527E-05    76   0.239E-02    0.574E-03
DAV:  11    -0.131906139573E+02   -0.29764E-03   -0.20578E-05    72   0.228E-02    0.358E-03
DAV:  12    -0.131907650720E+02   -0.15111E-03   -0.11185E-05    84   0.157E-02    0.381E-03
DAV:  13    -0.131908248280E+02   -0.59756E-04   -0.10313E-06    88   0.683E-03
   3 F= -.13190825E+02 E0= -.13190825E+02  d E =-.156596E+00  mag=     1.0000
       N       E                     dE             d eps       ncg     rms          rms(c)
DAV:   1    -0.132332045599E+02   -0.42439E-01   -0.27071E+00    48   0.144E+01    0.545E-01
DAV:   2    -0.132310552631E+02    0.21493E-02   -0.54870E-02    80   0.214E+00    0.276E-01
DAV:   3    -0.132342543133E+02   -0.31991E-02   -0.30143E-03    80   0.462E-01    0.139E-01
DAV:   4    -0.132355590455E+02   -0.13047E-02   -0.98934E-04    72   0.251E-01    0.709E-02
DAV:   5    -0.132362788037E+02   -0.71976E-03   -0.18337E-04    60   0.138E-01    0.271E-02
DAV:   6    -0.132365760055E+02   -0.29720E-03   -0.70034E-05    80   0.637E-02    0.144E-02
DAV:   7    -0.132366592689E+02   -0.83263E-04   -0.17142E-05    72   0.343E-02
   4 F= -.13236659E+02 E0= -.13236659E+02  d E =-.202430E+00  mag=     1.0000
       N       E                     dE             d eps       ncg     rms          rms(c)
DAV:   1    -0.132477074658E+02   -0.11131E-01   -0.30400E+00    64   0.154E+01    0.566E-01
DAV:   2    -0.132459223359E+02    0.17851E-02   -0.61283E-02    76   0.223E+00    0.291E-01
DAV:   3    -0.132492426110E+02   -0.33203E-02   -0.39334E-03    80   0.495E-01    0.148E-01
DAV:   4    -0.132505660338E+02   -0.13234E-02   -0.87269E-04    64   0.253E-01    0.731E-02
DAV:   5    -0.132514267824E+02   -0.86075E-03   -0.12234E-04    80   0.121E-01    0.275E-02
DAV:   6    -0.132517161671E+02   -0.28938E-03   -0.66025E-05    64   0.636E-02    0.131E-02
DAV:   7    -0.132518051277E+02   -0.88961E-04   -0.14067E-05    76   0.339E-02
   5 F= -.13251805E+02 E0= -.13251805E+02  d E =-.217576E+00  mag=     1.0000
       N       E                     dE             d eps       ncg     rms          rms(c)
DAV:   1    -0.132520140257E+02   -0.29786E-03   -0.35049E-02    64   0.165E+00    0.621E-02
DAV:   2    -0.132519622383E+02    0.51787E-04   -0.66248E-04    68   0.238E-01
   6 F= -.13251962E+02 E0= -.13251962E+02  d E =-.217733E+00  mag=     1.0000
       N       E                     dE             d eps       ncg     rms          rms(c)
DAV:   1    -0.132295759116E+02    0.22438E-01   -0.53721E+00    48   0.209E+01    0.807E-01
DAV:   2    -0.132267636307E+02    0.28123E-02   -0.11759E-01    76   0.299E+00    0.377E-01
DAV:   3    -0.132296703304E+02   -0.29067E-02   -0.48942E-03    60   0.650E-01    0.194E-01
DAV:   4    -0.132303670359E+02   -0.69671E-03   -0.27880E-03    68   0.399E-01    0.109E-01
DAV:   5    -0.132311558622E+02   -0.78883E-03   -0.44828E-04    68   0.215E-01    0.389E-02
DAV:   6    -0.132314144955E+02   -0.25863E-03   -0.14645E-04    64   0.993E-02    0.170E-02
DAV:   7    -0.132314908280E+02   -0.76332E-04   -0.28734E-05    76   0.444E-02
   7 F= -.13231491E+02 E0= -.13231491E+02  d E =0.204714E-01  mag=     1.0000
       N       E                     dE             d eps       ncg     rms          rms(c)
DAV:   1    -0.132562965443E+02   -0.24882E-01   -0.25292E+00    48   0.144E+01    0.578E-01
DAV:   2    -0.132540720408E+02    0.22245E-02   -0.61252E-02    76   0.213E+00    0.267E-01
DAV:   3    -0.132558156262E+02   -0.17436E-02   -0.23911E-03    64   0.487E-01    0.135E-01
DAV:   4    -0.132563106957E+02   -0.49507E-03   -0.12100E-03    68   0.263E-01    0.734E-02
DAV:   5    -0.132567619626E+02   -0.45127E-03   -0.26435E-04    80   0.156E-01    0.245E-02
DAV:   6    -0.132569328943E+02   -0.17093E-03   -0.47046E-05    68   0.589E-02    0.101E-02
DAV:   7    -0.132569735618E+02   -0.40667E-04   -0.84421E-06    80   0.239E-02
   8 F= -.13256974E+02 E0= -.13256974E+02  d E =-.501132E-02  mag=     1.0000
       N       E                     dE             d eps       ncg     rms          rms(c)
DAV:   1    -0.132576256535E+02   -0.69276E-03   -0.14471E-01    48   0.335E+00    0.159E-01
DAV:   2    -0.132570863695E+02    0.53928E-03   -0.31017E-03    72   0.497E-01    0.818E-02
DAV:   3    -0.132575271379E+02   -0.44077E-03   -0.22323E-04    80   0.153E-01    0.407E-02
DAV:   4    -0.132577149814E+02   -0.18784E-03   -0.93157E-05    60   0.736E-02    0.203E-02
DAV:   5    -0.132577658163E+02   -0.50835E-04   -0.21816E-05    72   0.435E-02
   9 F= -.13257766E+02 E0= -.13257766E+02  d E =-.792255E-03  mag=     1.0000
       N       E                     dE             d eps       ncg     rms          rms(c)
DAV:   1    -0.132578007269E+02   -0.85745E-04   -0.71257E-03    48   0.743E-01    0.350E-02
DAV:   2    -0.132577778293E+02    0.22898E-04   -0.15232E-04    72   0.111E-01
  10 F= -.13257778E+02 E0= -.13257778E+02  d E =-.804268E-03  mag=     1.0000
       N       E                     dE             d eps       ncg     rms          rms(c)
DAV:   1    -0.132576144459E+02    0.18628E-03   -0.13684E-01    64   0.340E+00    0.116E-01
DAV:   2    -0.132574929425E+02    0.12150E-03   -0.26864E-03    72   0.431E-01    0.618E-02
DAV:   3    -0.132577314438E+02   -0.23850E-03   -0.17850E-04    76   0.115E-01    0.359E-02
DAV:   4    -0.132578379232E+02   -0.10648E-03   -0.25472E-05    80   0.526E-02    0.155E-02
DAV:   5    -0.132578764512E+02   -0.38528E-04   -0.12700E-05    76   0.270E-02
  11 F= -.13257876E+02 E0= -.13257876E+02  d E =-.986219E-04  mag=     1.0000
       N       E                     dE             d eps       ncg     rms          rms(c)
DAV:   1    -0.132579924871E+02   -0.15456E-03   -0.27664E-02    64   0.153E+00    0.503E-02
DAV:   2    -0.132579772805E+02    0.15207E-04   -0.55850E-04    80   0.197E-01
  12 F= -.13257977E+02 E0= -.13257977E+02  d E =-.199451E-03  mag=     1.0000
       N       E                     dE             d eps       ncg     rms          rms(c)
DAV:   1    -0.132580262979E+02   -0.33811E-04   -0.18706E-04    64   0.125E-01    0.182E-02
DAV:   2    -0.132580374395E+02   -0.11142E-04   -0.53345E-06    68   0.238E-02
  13 F= -.13258037E+02 E0= -.13258037E+02  d E =-.259610E-03  mag=     1.0000
