   11   11  800    2
  0.3068182E+03  0.1500000E-08  0.1500000E-08  0.1500000E-08  0.5000000E-15
  1.000000000000000E-004
  CAR 
 unknown system                          
     20      1     40
 
  0.0000000E+00  0.0000000E+00  0.0000000E+00  0.1000000E+01
    1      -19.146701    -19.146701
    2      -16.552808    -16.552807
    3      -14.117236    -14.117237
    4      -10.966064    -10.966064
    5      -10.483805    -10.483806
    6       -9.487975     -9.487975
    7       -8.973281     -8.973280
    8       -7.971333     -7.971335
    9       -7.927788     -7.927788
   10       -7.607727     -7.607727
   11       -0.450005     -0.449994
   12        0.190813      0.190823
   13        0.207994      0.208003
   14        0.274316      0.274321
   15        0.304523      0.304516
   16        0.516373      0.516384
   17        0.602983      0.602998
   18        0.980566      0.980562
   19        1.002720      1.002709
   20        1.004081      1.004076
   21        1.051878      1.051879
   22        1.070771      1.070770
   23        1.085741      1.085739
   24        1.103984      1.103980
   25        1.206412      1.206432
   26        1.236972      1.236967
   27        1.271083      1.271085
   28        1.313578      1.313565
   29        1.330321      1.330330
   30        1.774858      1.774869
   31        1.778322      1.778300
   32        1.809586      1.809580
   33        1.821551      1.821550
   34        1.824911      1.824903
   35        1.849681      1.849671
   36        1.851172      1.851160
   37        1.870866      1.870877
   38        1.956688      1.956709
   39        2.100035      2.100033
   40        2.157234      2.157242
