       N       E                     dE             d eps       ncg     rms          rms(c)
DAV:   1     0.501221243523E+02    0.50122E+02   -0.46898E+03   220   0.201E+02
DAV:   2    -0.371552198792E+02   -0.87277E+02   -0.82048E+02   260   0.553E+01
DAV:   3    -0.477311628248E+02   -0.10576E+02   -0.10551E+02   280   0.208E+01
DAV:   4    -0.480331522308E+02   -0.30199E+00   -0.30198E+00   180   0.329E+00
DAV:   5    -0.480383799034E+02   -0.52277E-02   -0.52277E-02   220   0.407E-01    0.225E+01
DAV:   6    -0.196892203537E+02    0.28349E+02   -0.81735E+01   200   0.203E+01    0.107E+01
DAV:   7    -0.406266988402E+02   -0.20937E+02   -0.18709E+01   260   0.930E+00    0.632E+00
DAV:   8    -0.445381975357E+02   -0.39115E+01   -0.19633E+00   180   0.300E+00    0.384E+00
DAV:   9    -0.518151980672E+02   -0.72770E+01   -0.33275E+00   260   0.354E+00    0.140E+00
DAV:  10    -0.541113240696E+02   -0.22961E+01   -0.80107E-01   160   0.172E+00    0.905E-01
DAV:  11    -0.550204066394E+02   -0.90908E+00   -0.20712E-01   220   0.975E-01    0.521E-01
DAV:  12    -0.559828361752E+02   -0.96243E+00   -0.22642E-01   180   0.860E-01    0.237E-01
DAV:  13    -0.561349301057E+02   -0.15209E+00   -0.18677E-02   220   0.274E-01    0.108E-01
DAV:  14    -0.563195490526E+02   -0.18462E+00   -0.80088E-03   220   0.172E-01    0.596E-02
DAV:  15    -0.563214745536E+02   -0.19255E-02   -0.15821E-03   220   0.751E-02    0.404E-02
DAV:  16    -0.563238911446E+02   -0.24166E-02   -0.11007E-03   160   0.711E-02    0.270E-02
DAV:  17    -0.563323641086E+02   -0.84730E-02   -0.68345E-04   160   0.477E-02    0.203E-02
DAV:  18    -0.563396133522E+02   -0.72492E-02   -0.49683E-04   160   0.400E-02    0.132E-02
DAV:  19    -0.563435845703E+02   -0.39712E-02   -0.85870E-05   160   0.210E-02    0.579E-03
DAV:  20    -0.563440755315E+02   -0.49096E-03   -0.13756E-05   200   0.111E-02    0.403E-03
DAV:  21    -0.563442988555E+02   -0.22332E-03   -0.74709E-06   220   0.723E-03    0.207E-03
DAV:  22    -0.563444702437E+02   -0.17139E-03   -0.26011E-06   160   0.386E-03    0.161E-03
DAV:  23    -0.563445560742E+02   -0.85831E-04   -0.12901E-06   180   0.233E-03
   1 F= -.56344556E+02 E0= -.56344556E+02  d E =-.563446E+02  mag=     0.0003
       N       E                     dE             d eps       ncg     rms          rms(c)
DAV:   1    -0.531135538941E+02    0.32309E+01   -0.41166E+02   200   0.573E+01    0.526E+00
DAV:   2    -0.537400907939E+02   -0.62654E+00   -0.10690E+01   160   0.923E+00    0.338E+00
DAV:   3    -0.535924004429E+02    0.14769E+00   -0.64590E-01   240   0.191E+00    0.191E+00
DAV:   4    -0.535674364382E+02    0.24964E-01   -0.20507E-01   220   0.125E+00    0.636E-01
DAV:   5    -0.535655292796E+02    0.19072E-02   -0.47284E-02   200   0.412E-01    0.261E-01
DAV:   6    -0.535674869904E+02   -0.19577E-02   -0.27720E-03   160   0.143E-01    0.119E-01
DAV:   7    -0.535685657686E+02   -0.10788E-02   -0.42145E-04   160   0.569E-02    0.491E-02
DAV:   8    -0.535696179006E+02   -0.10521E-02   -0.24700E-04   240   0.386E-02    0.248E-02
DAV:   9    -0.535707126614E+02   -0.10948E-02   -0.21673E-04   200   0.231E-02    0.160E-02
DAV:  10    -0.535717473588E+02   -0.10347E-02   -0.24311E-04   160   0.219E-02    0.136E-02
DAV:  11    -0.535722327629E+02   -0.48540E-03   -0.72842E-05   200   0.151E-02    0.788E-03
DAV:  12    -0.535726486832E+02   -0.41592E-03   -0.65920E-05   160   0.152E-02    0.623E-03
DAV:  13    -0.535727742091E+02   -0.12553E-03   -0.64704E-06   240   0.578E-03    0.371E-03
DAV:  14    -0.535729013591E+02   -0.12715E-03   -0.69095E-06   160   0.539E-03    0.213E-03
DAV:  15    -0.535729589868E+02   -0.57628E-04   -0.27166E-06   240   0.307E-03
   2 F= -.53572959E+02 E0= -.53572959E+02  d E =0.277160E+01  mag=     0.0000
       N       E                     dE             d eps       ncg     rms          rms(c)
DAV:   1    -0.560087149750E+02   -0.24358E+01   -0.99154E+01   160   0.275E+01    0.214E+00
DAV:   2    -0.560215800132E+02   -0.12865E-01   -0.83249E-01   240   0.284E+00    0.132E+00
DAV:   3    -0.559999513671E+02    0.21629E-01   -0.14041E-01   240   0.911E-01    0.356E-01
DAV:   4    -0.560004394318E+02   -0.48806E-03   -0.14597E-02   160   0.303E-01    0.180E-01
DAV:   5    -0.560000913608E+02    0.34807E-03   -0.15852E-03   200   0.104E-01    0.681E-02
DAV:   6    -0.560001658109E+02   -0.74450E-04   -0.21856E-04   160   0.395E-02
   3 F= -.56000166E+02 E0= -.56000166E+02  d E =0.344390E+00  mag=     0.0000
       N       E                     dE             d eps       ncg     rms          rms(c)
DAV:   1    -0.568047177607E+02   -0.80463E+00   -0.27773E+01   200   0.149E+01    0.125E+00
DAV:   2    -0.568033067330E+02    0.14110E-02   -0.25352E-01   200   0.157E+00    0.780E-01
DAV:   3    -0.567947226393E+02    0.85841E-02   -0.42725E-02   200   0.593E-01    0.164E-01
DAV:   4    -0.567952015597E+02   -0.47892E-03   -0.58327E-03   160   0.202E-01    0.921E-02
DAV:   5    -0.567953941120E+02   -0.19255E-03   -0.35511E-04   160   0.502E-02    0.467E-02
DAV:   6    -0.567957582660E+02   -0.36415E-03   -0.83215E-05   160   0.232E-02    0.201E-02
DAV:   7    -0.567959905469E+02   -0.23228E-03   -0.10868E-05   160   0.947E-03    0.107E-02
DAV:   8    -0.567966191664E+02   -0.62862E-03   -0.43040E-05   160   0.154E-02    0.718E-03
DAV:   9    -0.567971682221E+02   -0.54906E-03   -0.50590E-05   200   0.134E-02    0.444E-03
DAV:  10    -0.567973876500E+02   -0.21943E-03   -0.11805E-05   200   0.647E-03    0.282E-03
DAV:  11    -0.567974866471E+02   -0.98997E-04   -0.21680E-06   200   0.296E-03
   4 F= -.56797487E+02 E0= -.56797487E+02  d E =-.452931E+00  mag=    -0.0000
       N       E                     dE             d eps       ncg     rms          rms(c)
DAV:   1    -0.569249557384E+02   -0.12757E+00   -0.13813E+01   200   0.107E+01    0.986E-01
DAV:   2    -0.569223754614E+02    0.25803E-02   -0.14502E-01   200   0.119E+00    0.619E-01
DAV:   3    -0.569170014901E+02    0.53740E-02   -0.27610E-02   200   0.479E-01    0.127E-01
DAV:   4    -0.569171957228E+02   -0.19423E-03   -0.33289E-03   160   0.156E-01    0.683E-02
DAV:   5    -0.569172071942E+02   -0.11471E-04   -0.14216E-04   200   0.321E-02
   5 F= -.56917207E+02 E0= -.56917207E+02  d E =-.572651E+00  mag=    -0.0000
       N       E                     dE             d eps       ncg     rms          rms(c)
DAV:   1    -0.569328658884E+02   -0.15670E-01   -0.11539E+00   200   0.315E+00    0.292E-01
DAV:   2    -0.569326187093E+02    0.24718E-03   -0.12313E-02   160   0.349E-01    0.183E-01
DAV:   3    -0.569322674022E+02    0.35131E-03   -0.23490E-03   160   0.146E-01    0.332E-02
DAV:   4    -0.569323403300E+02   -0.72928E-04   -0.35292E-04   160   0.511E-02
   6 F= -.56932340E+02 E0= -.56932340E+02  d E =-.587784E+00  mag=    -0.0000
       N       E                     dE             d eps       ncg     rms          rms(c)
DAV:   1    -0.569329554531E+02   -0.68805E-03   -0.27953E-02   160   0.494E-01    0.441E-02
DAV:   2    -0.569329668882E+02   -0.11435E-04   -0.36369E-04   160   0.590E-02
   7 F= -.56932967E+02 E0= -.56932967E+02  d E =-.588411E+00  mag=    -0.0000
       N       E                     dE             d eps       ncg     rms          rms(c)
DAV:   1    -0.569693493905E+02   -0.36394E-01   -0.43554E+00   240   0.658E+00    0.587E-01
DAV:   2    -0.569684971771E+02    0.85221E-03   -0.78362E-02   160   0.906E-01    0.412E-01
DAV:   3    -0.569662271417E+02    0.22700E-02   -0.43169E-02   200   0.612E-01    0.173E-01
DAV:   4    -0.569657460657E+02    0.48108E-03   -0.79859E-03   200   0.274E-01    0.125E-01
DAV:   5    -0.569657852860E+02   -0.39220E-04   -0.79981E-04   160   0.750E-02
   8 F= -.56965785E+02 E0= -.56965785E+02  d E =-.328184E-01  mag=    -0.0000
       N       E                     dE             d eps       ncg     rms          rms(c)
DAV:   1    -0.569721308161E+02   -0.63848E-02   -0.34367E-01   160   0.186E+00    0.168E-01
DAV:   2    -0.569720189003E+02    0.11192E-03   -0.60242E-03   160   0.253E-01    0.116E-01
DAV:   3    -0.569719044382E+02    0.11446E-03   -0.36295E-03   160   0.179E-01    0.501E-02
DAV:   4    -0.569718539663E+02    0.50472E-04   -0.70601E-04   240   0.816E-02
   9 F= -.56971854E+02 E0= -.56971854E+02  d E =-.388871E-01  mag=    -0.0000
       N       E                     dE             d eps       ncg     rms          rms(c)
DAV:   1    -0.569949419719E+02   -0.23038E-01   -0.26242E+00   200   0.476E+00    0.419E-01
DAV:   2    -0.569947813077E+02    0.16066E-03   -0.39379E-02   160   0.571E-01    0.267E-01
DAV:   3    -0.569940832202E+02    0.69809E-03   -0.96102E-03   200   0.276E-01    0.784E-02
DAV:   4    -0.569940625012E+02    0.20719E-04   -0.14577E-03   160   0.107E-01    0.564E-02
DAV:   5    -0.569940891824E+02   -0.26681E-04   -0.21691E-04   160   0.407E-02
  10 F= -.56994089E+02 E0= -.56994089E+02  d E =-.222352E-01  mag=    -0.0000
       N       E                     dE             d eps       ncg     rms          rms(c)
DAV:   1    -0.569941775807E+02   -0.11508E-03   -0.99615E-03   240   0.297E-01    0.266E-02
DAV:   2    -0.569941807700E+02   -0.31892E-05   -0.16289E-04   160   0.371E-02
  11 F= -.56994181E+02 E0= -.56994181E+02  d E =-.223268E-01  mag=    -0.0000
       N       E                     dE             d eps       ncg     rms          rms(c)
DAV:   1    -0.570137148701E+02   -0.19537E-01   -0.89727E-01   200   0.299E+00    0.266E-01
DAV:   2    -0.570137034138E+02    0.11456E-04   -0.10818E-02   160   0.306E-01    0.166E-01
DAV:   3    -0.570136727874E+02    0.30626E-04   -0.31358E-03   200   0.144E-01    0.541E-02
DAV:   4    -0.570136335267E+02    0.39261E-04   -0.38616E-04   160   0.530E-02
  12 F= -.57013634E+02 E0= -.57013634E+02  d E =-.194528E-01  mag=    -0.0000
       N       E                     dE             d eps       ncg     rms          rms(c)
DAV:   1    -0.570153572459E+02   -0.16845E-02   -0.12988E-01   200   0.114E+00    0.997E-02
DAV:   2    -0.570153848284E+02   -0.27583E-04   -0.16220E-03   160   0.118E-01    0.636E-02
DAV:   3    -0.570154021761E+02   -0.17348E-04   -0.47086E-04   160   0.558E-02
  13 F= -.57015402E+02 E0= -.57015402E+02  d E =-.212214E-01  mag=    -0.0000
       N       E                     dE             d eps       ncg     rms          rms(c)
DAV:   1    -0.570193448460E+02   -0.39600E-02   -0.69844E-01   200   0.260E+00    0.192E-01
DAV:   2    -0.570194971095E+02   -0.15226E-03   -0.91477E-03   200   0.288E-01    0.126E-01
DAV:   3    -0.570194217911E+02    0.75318E-04   -0.24215E-03   160   0.133E-01    0.469E-02
DAV:   4    -0.570193972690E+02    0.24522E-04   -0.40375E-04   160   0.580E-02
  14 F= -.57019397E+02 E0= -.57019397E+02  d E =-.399509E-02  mag=    -0.0000
       N       E                     dE             d eps       ncg     rms          rms(c)
DAV:   1    -0.570200644766E+02   -0.64269E-03   -0.54415E-02   160   0.722E-01    0.478E-02
DAV:   2    -0.570201016047E+02   -0.37128E-04   -0.74285E-04   180   0.798E-02
  15 F= -.57020102E+02 E0= -.57020102E+02  d E =-.469943E-02  mag=    -0.0000
       N       E                     dE             d eps       ncg     rms          rms(c)
DAV:   1    -0.570216540422E+02   -0.15896E-02   -0.89539E-02   220   0.903E-01    0.881E-02
DAV:   2    -0.570216016610E+02    0.52381E-04   -0.14695E-03   160   0.112E-01    0.555E-02
DAV:   3    -0.570215845213E+02    0.17140E-04   -0.66869E-04   160   0.667E-02
  16 F= -.57021585E+02 E0= -.57021585E+02  d E =-.148292E-02  mag=     0.0000
       N       E                     dE             d eps       ncg     rms          rms(c)
DAV:   1    -0.570215831586E+02    0.18502E-04   -0.25883E-04   240   0.480E-02    0.149E-02
DAV:   2    -0.570215882302E+02   -0.50716E-05   -0.28675E-05   160   0.136E-02
  17 F= -.57021588E+02 E0= -.57021588E+02  d E =-.148663E-02  mag=     0.0000
       N       E                     dE             d eps       ncg     rms          rms(c)
DAV:   1    -0.570222848580E+02   -0.70170E-03   -0.41613E-02   200   0.675E-01    0.423E-02
DAV:   2    -0.570223231588E+02   -0.38301E-04   -0.54472E-04   160   0.654E-02
  18 F= -.57022323E+02 E0= -.57022323E+02  d E =-.734929E-03  mag=     0.0000
       N       E                     dE             d eps       ncg     rms          rms(c)
DAV:   1    -0.570223445603E+02   -0.59702E-04   -0.13204E-03   200   0.123E-01    0.189E-02
DAV:   2    -0.570223466026E+02   -0.20423E-05   -0.12144E-05   200   0.100E-02
  19 F= -.57022347E+02 E0= -.57022347E+02  d E =-.758372E-03  mag=     0.0000
       N       E                     dE             d eps       ncg     rms          rms(c)
DAV:   1    -0.570225549067E+02   -0.21035E-03   -0.26755E-02   200   0.511E-01    0.340E-02
DAV:   2    -0.570225662370E+02   -0.11330E-04   -0.28142E-04   200   0.502E-02
  20 F= -.57022566E+02 E0= -.57022566E+02  d E =-.219634E-03  mag=    -0.0000
       N       E                     dE             d eps       ncg     rms          rms(c)
DAV:   1    -0.570225680248E+02   -0.13118E-04   -0.29221E-04   160   0.513E-02    0.666E-03
DAV:   2    -0.570225715552E+02   -0.35304E-05   -0.99501E-06   200   0.861E-03
  21 F= -.57022572E+02 E0= -.57022572E+02  d E =-.224953E-03  mag=    -0.0000
       N       E                     dE             d eps       ncg     rms          rms(c)
DAV:   1    -0.570226994235E+02   -0.13140E-03   -0.95453E-03   160   0.294E-01    0.249E-02
DAV:   2    -0.570227014646E+02   -0.20412E-05   -0.12645E-04   160   0.340E-02
  22 F= -.57022701E+02 E0= -.57022701E+02  d E =-.129909E-03  mag=     0.0000
