    2    2  800    2
  0.1687500E+04  0.1500000E-08  0.1500000E-08  0.1500000E-08  0.5000000E-15
  1.000000000000000E-004
  CAR 
 unknown system                          
     14      1     12
 
  0.0000000E+00  0.0000000E+00  0.0000000E+00  0.1000000E+01
    1      -21.871158    -21.871133
    2      -19.069683    -19.069679
    3      -10.740886    -10.740854
    4       -8.708177     -8.708180
    5       -8.708175     -8.708179
    6       -6.711824     -6.711829
    7       -6.711822     -6.711828
    8       -4.532029     -4.532029
    9       -0.464956     -0.463914
   10        0.279158      0.274240
   11        0.428621      0.430212
   12        0.452506      0.452940
