       N       E                     dE             d eps       ncg     rms          rms(c)
DAV:   1     0.692328372054E+02    0.69233E+02   -0.24154E+03    80   0.423E+02
DAV:   2     0.130681885803E+02   -0.56165E+02   -0.54863E+02    88   0.889E+01
DAV:   3    -0.156868679775E+01   -0.14637E+02   -0.12271E+02    64   0.422E+01
DAV:   4    -0.284397642088E+01   -0.12753E+01   -0.12752E+01    64   0.111E+01
DAV:   5    -0.286042502481E+01   -0.16449E-01   -0.16448E-01    76   0.141E+00    0.660E+00
DAV:   6     0.521650521798E+00    0.33821E+01   -0.49305E+00    52   0.978E+00    0.363E+00
DAV:   7    -0.792663672988E+00   -0.13143E+01   -0.74230E-01    56   0.461E+00    0.206E+00
DAV:   8    -0.179169231170E+01   -0.99903E+00   -0.33045E-01    48   0.255E+00    0.729E-01
DAV:   9    -0.230082671864E+01   -0.50913E+00   -0.13345E-01    56   0.171E+00    0.297E-01
DAV:  10    -0.244611970339E+01   -0.14529E+00   -0.22630E-02    64   0.799E-01    0.168E-01
DAV:  11    -0.268636630847E+01   -0.24025E+00   -0.16369E-02    72   0.513E-01    0.108E-01
DAV:  12    -0.282960529353E+01   -0.14324E+00   -0.83503E-03    72   0.323E-01    0.499E-02
DAV:  13    -0.287129867450E+01   -0.41693E-01   -0.21501E-03    56   0.177E-01    0.218E-02
DAV:  14    -0.287326343853E+01   -0.19648E-02   -0.58861E-05    32   0.471E-02    0.154E-02
DAV:  15    -0.287488539111E+01   -0.16220E-02   -0.45079E-04    56   0.763E-02    0.896E-03
DAV:  16    -0.287421389559E+01    0.67150E-03   -0.42030E-05    40   0.369E-02    0.601E-03
DAV:  17    -0.287567045775E+01   -0.14566E-02   -0.46849E-05    40   0.299E-02    0.529E-03
DAV:  18    -0.287682365050E+01   -0.11532E-02   -0.92130E-05    40   0.301E-02    0.344E-03
DAV:  19    -0.287696183632E+01   -0.13819E-03   -0.60372E-06    32   0.114E-02    0.168E-03
DAV:  20    -0.287695663631E+01    0.52000E-05   -0.30739E-06    32   0.816E-03
   1 F= -.28769566E+01 E0= -.28769566E+01  d E =-.287696E+01  mag=     0.0005
       N       E                     dE             d eps       ncg     rms          rms(c)
DAV:   1    -0.295338759890E+01   -0.76426E-01   -0.17426E+01    48   0.216E+01    0.392E+00
DAV:   2    -0.300436824182E+01   -0.50981E-01   -0.51547E-01    56   0.475E+00    0.502E-01
DAV:   3    -0.300160458836E+01    0.27637E-02   -0.82848E-03    48   0.615E-01    0.299E-01
DAV:   4    -0.300125570673E+01    0.34888E-03   -0.66476E-03    56   0.451E-01    0.103E-01
DAV:   5    -0.300117262140E+01    0.83085E-04   -0.23684E-03    48   0.254E-01    0.101E-01
DAV:   6    -0.300118730514E+01   -0.14684E-04   -0.34837E-04    56   0.103E-01
   2 F= -.30011873E+01 E0= -.30011873E+01  d E =-.124231E+00  mag=     0.0000
       N       E                     dE             d eps       ncg     rms          rms(c)
DAV:   1    -0.300127774456E+01   -0.10512E-03   -0.70064E-03    60   0.436E-01    0.616E-02
DAV:   2    -0.300133578535E+01   -0.58041E-04   -0.20981E-04    52   0.942E-02
   3 F= -.30013358E+01 E0= -.30013358E+01  d E =-.124379E+00  mag=     0.0000
