   2   2   0   0
  0.1687500E+04  0.1500000E-08  0.1500000E-08  0.1500000E-08  0.5000000E-15
  1.000000000000000E-004
  CAR 
 unknown system                          
      1.44260302    -19.61421211  301     -7.25649373      1.00000000
    -19.614  0.0000E+00  0.0000E+00  0.0000E+00  0.0000E+00
    -19.544  0.0000E+00  0.0000E+00  0.0000E+00  0.0000E+00
    -19.474  0.0000E+00  0.0000E+00  0.0000E+00  0.0000E+00
    -19.404  0.0000E+00  0.0000E+00  0.0000E+00  0.0000E+00
    -19.333  0.0000E+00  0.0000E+00  0.0000E+00  0.0000E+00
    -19.263  0.0000E+00  0.0000E+00  0.0000E+00  0.0000E+00
    -19.193  0.0000E+00  0.0000E+00  0.0000E+00  0.0000E+00
    -19.123  0.0000E+00  0.0000E+00  0.0000E+00  0.0000E+00
    -19.053  0.0000E+00  0.0000E+00  0.0000E+00  0.0000E+00
    -18.983  0.0000E+00  0.0000E+00  0.0000E+00  0.0000E+00
    -18.912  0.4659E-14  0.3394E-14  0.3270E-15  0.2382E-15
    -18.842  0.1478E-08  0.1170E-08  0.1038E-09  0.8214E-10
    -18.772  0.1033E-04  0.8870E-05  0.7248E-06  0.6227E-06
    -18.702  0.1828E-02  0.1696E-02  0.1290E-03  0.1197E-03
    -18.632  0.1178E-01  0.1168E-01  0.9560E-03  0.9393E-03
    -18.561  0.4128E-02  0.4358E-02  0.1246E-02  0.1245E-02
    -18.491  0.6040E-04  0.6869E-04  0.1250E-02  0.1250E-02
    -18.421  0.2404E-07  0.2964E-07  0.1250E-02  0.1250E-02
    -18.351  0.2162E-12  0.2896E-12  0.1250E-02  0.1250E-02
    -18.281  0.0000E+00  0.0000E+00  0.1250E-02  0.1250E-02
    -18.210  0.0000E+00  0.0000E+00  0.1250E-02  0.1250E-02
    -18.140  0.0000E+00  0.0000E+00  0.1250E-02  0.1250E-02
    -18.070  0.0000E+00  0.0000E+00  0.1250E-02  0.1250E-02
    -18.000  0.0000E+00  0.0000E+00  0.1250E-02  0.1250E-02
    -17.930  0.0000E+00  0.0000E+00  0.1250E-02  0.1250E-02
    -17.859  0.0000E+00  0.0000E+00  0.1250E-02  0.1250E-02
    -17.789  0.0000E+00  0.0000E+00  0.1250E-02  0.1250E-02
    -17.719  0.0000E+00  0.0000E+00  0.1250E-02  0.1250E-02
    -17.649  0.0000E+00  0.0000E+00  0.1250E-02  0.1250E-02
    -17.579  0.0000E+00  0.0000E+00  0.1250E-02  0.1250E-02
    -17.509  0.0000E+00  0.0000E+00  0.1250E-02  0.1250E-02
    -17.438  0.0000E+00  0.0000E+00  0.1250E-02  0.1250E-02
    -17.368  0.0000E+00  0.0000E+00  0.1250E-02  0.1250E-02
    -17.298  0.1937E-12  0.2603E-12  0.1250E-02  0.1250E-02
    -17.228  0.2222E-07  0.2746E-07  0.1250E-02  0.1250E-02
    -17.158  0.5754E-04  0.6555E-04  0.1254E-02  0.1255E-02
    -17.087  0.4043E-02  0.4273E-02  0.1538E-02  0.1555E-02
    -17.017  0.1182E-01  0.1172E-01  0.2367E-02  0.2377E-02
    -16.947  0.1879E-02  0.1743E-02  0.2499E-02  0.2499E-02
    -16.877  0.1092E-04  0.9378E-05  0.2500E-02  0.2500E-02
    -16.807  0.1612E-08  0.1275E-08  0.2500E-02  0.2500E-02
    -16.736  0.5244E-14  0.3812E-14  0.2500E-02  0.2500E-02
    -16.666  0.0000E+00  0.0000E+00  0.2500E-02  0.2500E-02
    -16.596  0.0000E+00  0.0000E+00  0.2500E-02  0.2500E-02
    -16.526  0.0000E+00  0.0000E+00  0.2500E-02  0.2500E-02
    -16.456  0.0000E+00  0.0000E+00  0.2500E-02  0.2500E-02
    -16.386  0.0000E+00  0.0000E+00  0.2500E-02  0.2500E-02
    -16.315  0.0000E+00  0.0000E+00  0.2500E-02  0.2500E-02
    -16.245  0.0000E+00  0.0000E+00  0.2500E-02  0.2500E-02
    -16.175  0.0000E+00  0.0000E+00  0.2500E-02  0.2500E-02
    -16.105  0.0000E+00  0.0000E+00  0.2500E-02  0.2500E-02
    -16.035  0.0000E+00  0.0000E+00  0.2500E-02  0.2500E-02
    -15.964  0.0000E+00  0.0000E+00  0.2500E-02  0.2500E-02
    -15.894  0.0000E+00  0.0000E+00  0.2500E-02  0.2500E-02
    -15.824  0.0000E+00  0.0000E+00  0.2500E-02  0.2500E-02
    -15.754  0.0000E+00  0.0000E+00  0.2500E-02  0.2500E-02
    -15.684  0.0000E+00  0.0000E+00  0.2500E-02  0.2500E-02
    -15.613  0.0000E+00  0.0000E+00  0.2500E-02  0.2500E-02
    -15.543  0.0000E+00  0.0000E+00  0.2500E-02  0.2500E-02
    -15.473  0.0000E+00  0.0000E+00  0.2500E-02  0.2500E-02
    -15.403  0.0000E+00  0.0000E+00  0.2500E-02  0.2500E-02
    -15.333  0.0000E+00  0.0000E+00  0.2500E-02  0.2500E-02
    -15.262  0.0000E+00  0.0000E+00  0.2500E-02  0.2500E-02
    -15.192  0.0000E+00  0.0000E+00  0.2500E-02  0.2500E-02
    -15.122  0.0000E+00  0.0000E+00  0.2500E-02  0.2500E-02
    -15.052  0.0000E+00  0.0000E+00  0.2500E-02  0.2500E-02
    -14.982  0.0000E+00  0.0000E+00  0.2500E-02  0.2500E-02
    -14.912  0.0000E+00  0.0000E+00  0.2500E-02  0.2500E-02
    -14.841  0.0000E+00  0.0000E+00  0.2500E-02  0.2500E-02
    -14.771  0.0000E+00  0.0000E+00  0.2500E-02  0.2500E-02
    -14.701  0.0000E+00  0.0000E+00  0.2500E-02  0.2500E-02
    -14.631  0.0000E+00  0.0000E+00  0.2500E-02  0.2500E-02
    -14.561  0.0000E+00  0.0000E+00  0.2500E-02  0.2500E-02
    -14.490  0.0000E+00  0.0000E+00  0.2500E-02  0.2500E-02
    -14.420  0.0000E+00  0.0000E+00  0.2500E-02  0.2500E-02
    -14.350  0.0000E+00  0.0000E+00  0.2500E-02  0.2500E-02
    -14.280  0.0000E+00  0.0000E+00  0.2500E-02  0.2500E-02
    -14.210  0.0000E+00  0.0000E+00  0.2500E-02  0.2500E-02
    -14.139  0.0000E+00  0.0000E+00  0.2500E-02  0.2500E-02
    -14.069  0.0000E+00  0.0000E+00  0.2500E-02  0.2500E-02
    -13.999  0.0000E+00  0.0000E+00  0.2500E-02  0.2500E-02
    -13.929  0.0000E+00  0.0000E+00  0.2500E-02  0.2500E-02
    -13.859  0.0000E+00  0.0000E+00  0.2500E-02  0.2500E-02
    -13.788  0.0000E+00  0.0000E+00  0.2500E-02  0.2500E-02
    -13.718  0.0000E+00  0.0000E+00  0.2500E-02  0.2500E-02
    -13.648  0.0000E+00  0.0000E+00  0.2500E-02  0.2500E-02
    -13.578  0.0000E+00  0.0000E+00  0.2500E-02  0.2500E-02
    -13.508  0.0000E+00  0.0000E+00  0.2500E-02  0.2500E-02
    -13.438  0.0000E+00  0.0000E+00  0.2500E-02  0.2500E-02
    -13.367  0.0000E+00  0.0000E+00  0.2500E-02  0.2500E-02
    -13.297  0.0000E+00  0.0000E+00  0.2500E-02  0.2500E-02
    -13.227  0.0000E+00  0.0000E+00  0.2500E-02  0.2500E-02
    -13.157  0.0000E+00  0.0000E+00  0.2500E-02  0.2500E-02
    -13.087  0.0000E+00  0.0000E+00  0.2500E-02  0.2500E-02
    -13.016  0.0000E+00  0.0000E+00  0.2500E-02  0.2500E-02
    -12.946  0.0000E+00  0.0000E+00  0.2500E-02  0.2500E-02
    -12.876  0.0000E+00  0.0000E+00  0.2500E-02  0.2500E-02
    -12.806  0.0000E+00  0.0000E+00  0.2500E-02  0.2500E-02
    -12.736  0.0000E+00  0.0000E+00  0.2500E-02  0.2500E-02
    -12.665  0.0000E+00  0.0000E+00  0.2500E-02  0.2500E-02
    -12.595  0.0000E+00  0.0000E+00  0.2500E-02  0.2500E-02
    -12.525  0.0000E+00  0.0000E+00  0.2500E-02  0.2500E-02
    -12.455  0.0000E+00  0.0000E+00  0.2500E-02  0.2500E-02
    -12.385  0.0000E+00  0.0000E+00  0.2500E-02  0.2500E-02
    -12.315  0.0000E+00  0.0000E+00  0.2500E-02  0.2500E-02
    -12.244  0.0000E+00  0.0000E+00  0.2500E-02  0.2500E-02
    -12.174  0.0000E+00  0.0000E+00  0.2500E-02  0.2500E-02
    -12.104  0.0000E+00  0.0000E+00  0.2500E-02  0.2500E-02
    -12.034  0.0000E+00  0.0000E+00  0.2500E-02  0.2500E-02
    -11.964  0.0000E+00  0.0000E+00  0.2500E-02  0.2500E-02
    -11.893  0.0000E+00  0.0000E+00  0.2500E-02  0.2500E-02
    -11.823  0.0000E+00  0.0000E+00  0.2500E-02  0.2500E-02
    -11.753  0.0000E+00  0.0000E+00  0.2500E-02  0.2500E-02
    -11.683  0.0000E+00  0.0000E+00  0.2500E-02  0.2500E-02
    -11.613  0.0000E+00  0.0000E+00  0.2500E-02  0.2500E-02
    -11.542  0.0000E+00  0.0000E+00  0.2500E-02  0.2500E-02
    -11.472  0.0000E+00  0.0000E+00  0.2500E-02  0.2500E-02
    -11.402  0.0000E+00  0.0000E+00  0.2500E-02  0.2500E-02
    -11.332  0.0000E+00  0.0000E+00  0.2500E-02  0.2500E-02
    -11.262  0.0000E+00  0.0000E+00  0.2500E-02  0.2500E-02
    -11.191  0.0000E+00  0.0000E+00  0.2500E-02  0.2500E-02
    -11.121  0.0000E+00  0.0000E+00  0.2500E-02  0.2500E-02
    -11.051  0.0000E+00  0.0000E+00  0.2500E-02  0.2500E-02
    -10.981  0.0000E+00  0.0000E+00  0.2500E-02  0.2500E-02
    -10.911  0.0000E+00  0.0000E+00  0.2500E-02  0.2500E-02
    -10.841  0.0000E+00  0.0000E+00  0.2500E-02  0.2500E-02
    -10.770  0.0000E+00  0.0000E+00  0.2500E-02  0.2500E-02
    -10.700  0.0000E+00  0.0000E+00  0.2500E-02  0.2500E-02
    -10.630  0.0000E+00  0.0000E+00  0.2500E-02  0.2500E-02
    -10.560  0.0000E+00  0.0000E+00  0.2500E-02  0.2500E-02
    -10.490  0.0000E+00  0.0000E+00  0.2500E-02  0.2500E-02
    -10.419  0.0000E+00  0.0000E+00  0.2500E-02  0.2500E-02
    -10.349  0.0000E+00  0.0000E+00  0.2500E-02  0.2500E-02
    -10.279  0.0000E+00  0.0000E+00  0.2500E-02  0.2500E-02
    -10.209  0.0000E+00  0.0000E+00  0.2500E-02  0.2500E-02
    -10.139  0.0000E+00  0.0000E+00  0.2500E-02  0.2500E-02
    -10.068  0.0000E+00  0.0000E+00  0.2500E-02  0.2500E-02
     -9.998  0.0000E+00  0.0000E+00  0.2500E-02  0.2500E-02
     -9.928  0.0000E+00  0.0000E+00  0.2500E-02  0.2500E-02
     -9.858  0.0000E+00  0.0000E+00  0.2500E-02  0.2500E-02
     -9.788  0.0000E+00  0.0000E+00  0.2500E-02  0.2500E-02
     -9.718  0.0000E+00  0.0000E+00  0.2500E-02  0.2500E-02
     -9.647  0.0000E+00  0.0000E+00  0.2500E-02  0.2500E-02
     -9.577  0.0000E+00  0.0000E+00  0.2500E-02  0.2500E-02
     -9.507  0.0000E+00  0.0000E+00  0.2500E-02  0.2500E-02
     -9.437  0.0000E+00  0.0000E+00  0.2500E-02  0.2500E-02
     -9.367  0.0000E+00  0.0000E+00  0.2500E-02  0.2500E-02
     -9.296  0.0000E+00  0.0000E+00  0.2500E-02  0.2500E-02
     -9.226  0.0000E+00  0.0000E+00  0.2500E-02  0.2500E-02
     -9.156  0.0000E+00  0.0000E+00  0.2500E-02  0.2500E-02
     -9.086  0.0000E+00  0.0000E+00  0.2500E-02  0.2500E-02
     -9.016  0.0000E+00  0.0000E+00  0.2500E-02  0.2500E-02
     -8.945  0.0000E+00  0.0000E+00  0.2500E-02  0.2500E-02
     -8.875  0.0000E+00  0.0000E+00  0.2500E-02  0.2500E-02
     -8.805  0.0000E+00  0.0000E+00  0.2500E-02  0.2500E-02
     -8.735  0.0000E+00  0.0000E+00  0.2500E-02  0.2500E-02
     -8.665  0.0000E+00  0.0000E+00  0.2500E-02  0.2500E-02
     -8.594  0.0000E+00  0.0000E+00  0.2500E-02  0.2500E-02
     -8.524  0.0000E+00  0.0000E+00  0.2500E-02  0.2500E-02
     -8.454  0.0000E+00  0.0000E+00  0.2500E-02  0.2500E-02
     -8.384  0.0000E+00  0.0000E+00  0.2500E-02  0.2500E-02
     -8.314  0.0000E+00  0.0000E+00  0.2500E-02  0.2500E-02
     -8.244  0.2669E-16  0.1878E-16  0.2500E-02  0.2500E-02
     -8.173  0.3632E-10  0.2791E-10  0.2500E-02  0.2500E-02
     -8.103  0.1084E-05  0.9040E-06  0.2500E-02  0.2500E-02
     -8.033  0.7639E-03  0.6892E-03  0.2554E-02  0.2548E-02
     -7.963  0.1649E-01  0.1596E-01  0.3711E-02  0.3669E-02
     -7.893  0.1744E-01  0.1795E-01  0.4935E-02  0.4929E-02
     -7.822  0.9177E-03  0.1013E-02  0.5000E-02  0.5000E-02
     -7.752  0.1503E-05  0.1794E-05  0.5000E-02  0.5000E-02
     -7.682  0.1903E-06  0.2306E-06  0.5000E-02  0.5000E-02
     -7.612  0.2093E-03  0.2340E-03  0.5015E-02  0.5016E-02
     -7.542  0.6734E-02  0.7006E-02  0.5487E-02  0.5508E-02
     -7.471  0.1008E-01  0.9854E-02  0.6195E-02  0.6200E-02
     -7.401  0.7822E-03  0.7136E-03  0.6250E-02  0.6250E-02
     -7.331  0.1989E-05  0.1678E-05  0.6250E-02  0.6250E-02
     -7.261  0.1226E-09  0.9523E-10  0.6250E-02  0.6250E-02
     -7.191  0.1641E-15  0.1167E-15  0.6250E-02  0.6250E-02
     -7.121  0.0000E+00  0.0000E+00  0.6250E-02  0.6250E-02
     -7.050  0.0000E+00  0.0000E+00  0.6250E-02  0.6250E-02
     -6.980  0.0000E+00  0.0000E+00  0.6250E-02  0.6250E-02
     -6.910  0.0000E+00  0.0000E+00  0.6250E-02  0.6250E-02
     -6.840  0.0000E+00  0.0000E+00  0.6250E-02  0.6250E-02
     -6.770  0.0000E+00  0.0000E+00  0.6250E-02  0.6250E-02
     -6.699  0.0000E+00  0.0000E+00  0.6250E-02  0.6250E-02
     -6.629  0.0000E+00  0.0000E+00  0.6250E-02  0.6250E-02
     -6.559  0.0000E+00  0.0000E+00  0.6250E-02  0.6250E-02
     -6.489  0.0000E+00  0.0000E+00  0.6250E-02  0.6250E-02
     -6.419  0.0000E+00  0.0000E+00  0.6250E-02  0.6250E-02
     -6.348  0.0000E+00  0.0000E+00  0.6250E-02  0.6250E-02
     -6.278  0.0000E+00  0.0000E+00  0.6250E-02  0.6250E-02
     -6.208  0.0000E+00  0.0000E+00  0.6250E-02  0.6250E-02
     -6.138  0.0000E+00  0.0000E+00  0.6250E-02  0.6250E-02
     -6.068  0.0000E+00  0.0000E+00  0.6250E-02  0.6250E-02
     -5.997  0.0000E+00  0.0000E+00  0.6250E-02  0.6250E-02
     -5.927  0.0000E+00  0.0000E+00  0.6250E-02  0.6250E-02
     -5.857  0.0000E+00  0.0000E+00  0.6250E-02  0.6250E-02
     -5.787  0.0000E+00  0.0000E+00  0.6250E-02  0.6250E-02
     -5.717  0.0000E+00  0.0000E+00  0.6250E-02  0.6250E-02
     -5.647  0.6703E-14  0.5444E-14  0.6250E-02  0.6250E-02
     -5.576  0.1931E-08  0.1658E-08  0.6250E-02  0.6250E-02
     -5.506  0.1228E-04  0.1112E-04  0.6251E-02  0.6251E-02
     -5.436  0.1990E-02  0.1896E-02  0.6391E-02  0.6384E-02
     -5.366  0.1189E-01  0.1183E-01  0.7225E-02  0.7214E-02
     -5.296  0.3869E-02  0.4016E-02  0.7496E-02  0.7496E-02
     -5.225  0.5196E-04  0.5666E-04  0.7500E-02  0.7500E-02
     -5.155  0.1884E-07  0.2167E-07  0.7500E-02  0.7500E-02
     -5.085  0.1539E-12  0.1870E-12  0.7500E-02  0.7500E-02
     -5.015  0.0000E+00  0.0000E+00  0.7500E-02  0.7500E-02
     -4.945  0.1259E-12  0.1534E-12  0.7500E-02  0.7500E-02
     -4.874  0.1884E-07  0.2163E-07  0.7500E-02  0.7500E-02
     -4.804  0.6518E-04  0.7082E-04  0.7505E-02  0.7505E-02
     -4.734  0.6191E-02  0.6415E-02  0.7939E-02  0.7955E-02
     -4.664  0.2406E-01  0.2402E-01  0.9628E-02  0.9641E-02
     -4.594  0.5254E-02  0.5068E-02  0.9997E-02  0.9997E-02
     -4.523  0.4568E-04  0.4249E-04  0.1000E-01  0.1000E-01
     -4.453  0.1074E-07  0.9651E-08  0.1000E-01  0.1000E-01
     -4.383  0.5812E-13  0.5052E-13  0.1000E-01  0.1000E-01
     -4.313  0.0000E+00  0.0000E+00  0.1000E-01  0.1000E-01
     -4.243  0.0000E+00  0.0000E+00  0.1000E-01  0.1000E-01
     -4.173  0.0000E+00  0.0000E+00  0.1000E-01  0.1000E-01
     -4.102  0.0000E+00  0.0000E+00  0.1000E-01  0.1000E-01
     -4.032  0.0000E+00  0.0000E+00  0.1000E-01  0.1000E-01
     -3.962  0.0000E+00  0.0000E+00  0.1000E-01  0.1000E-01
     -3.892  0.0000E+00  0.0000E+00  0.1000E-01  0.1000E-01
     -3.822  0.0000E+00  0.0000E+00  0.1000E-01  0.1000E-01
     -3.751  0.0000E+00  0.0000E+00  0.1000E-01  0.1000E-01
     -3.681  0.0000E+00  0.0000E+00  0.1000E-01  0.1000E-01
     -3.611  0.0000E+00  0.0000E+00  0.1000E-01  0.1000E-01
     -3.541  0.0000E+00  0.0000E+00  0.1000E-01  0.1000E-01
     -3.471  0.0000E+00  0.0000E+00  0.1000E-01  0.1000E-01
     -3.400  0.0000E+00  0.0000E+00  0.1000E-01  0.1000E-01
     -3.330  0.0000E+00  0.0000E+00  0.1000E-01  0.1000E-01
     -3.260  0.0000E+00  0.0000E+00  0.1000E-01  0.1000E-01
     -3.190  0.0000E+00  0.0000E+00  0.1000E-01  0.1000E-01
     -3.120  0.0000E+00  0.0000E+00  0.1000E-01  0.1000E-01
     -3.050  0.0000E+00  0.0000E+00  0.1000E-01  0.1000E-01
     -2.979  0.0000E+00  0.0000E+00  0.1000E-01  0.1000E-01
     -2.909  0.0000E+00  0.0000E+00  0.1000E-01  0.1000E-01
     -2.839  0.0000E+00  0.0000E+00  0.1000E-01  0.1000E-01
     -2.769  0.0000E+00  0.0000E+00  0.1000E-01  0.1000E-01
     -2.699  0.0000E+00  0.0000E+00  0.1000E-01  0.1000E-01
     -2.628  0.0000E+00  0.0000E+00  0.1000E-01  0.1000E-01
     -2.558  0.0000E+00  0.0000E+00  0.1000E-01  0.1000E-01
     -2.488  0.0000E+00  0.0000E+00  0.1000E-01  0.1000E-01
     -2.418  0.0000E+00  0.0000E+00  0.1000E-01  0.1000E-01
     -2.348  0.0000E+00  0.0000E+00  0.1000E-01  0.1000E-01
     -2.277  0.0000E+00  0.0000E+00  0.1000E-01  0.1000E-01
     -2.207  0.0000E+00  0.0000E+00  0.1000E-01  0.1000E-01
     -2.137  0.0000E+00  0.0000E+00  0.1000E-01  0.1000E-01
     -2.067  0.0000E+00  0.0000E+00  0.1000E-01  0.1000E-01
     -1.997  0.0000E+00  0.0000E+00  0.1000E-01  0.1000E-01
     -1.926  0.0000E+00  0.0000E+00  0.1000E-01  0.1000E-01
     -1.856  0.0000E+00  0.0000E+00  0.1000E-01  0.1000E-01
     -1.786  0.0000E+00  0.0000E+00  0.1000E-01  0.1000E-01
     -1.716  0.0000E+00  0.0000E+00  0.1000E-01  0.1000E-01
     -1.646  0.0000E+00  0.0000E+00  0.1000E-01  0.1000E-01
     -1.576  0.0000E+00  0.0000E+00  0.1000E-01  0.1000E-01
     -1.505  0.0000E+00  0.0000E+00  0.1000E-01  0.1000E-01
     -1.435  0.0000E+00  0.0000E+00  0.1000E-01  0.1000E-01
     -1.365  0.0000E+00  0.0000E+00  0.1000E-01  0.1000E-01
     -1.295  0.0000E+00  0.0000E+00  0.1000E-01  0.1000E-01
     -1.225  0.0000E+00  0.0000E+00  0.1000E-01  0.1000E-01
     -1.154  0.0000E+00  0.0000E+00  0.1000E-01  0.1000E-01
     -1.084  0.0000E+00  0.0000E+00  0.1000E-01  0.1000E-01
     -1.014  0.0000E+00  0.0000E+00  0.1000E-01  0.1000E-01
     -0.944  0.0000E+00  0.0000E+00  0.1000E-01  0.1000E-01
     -0.874  0.0000E+00  0.0000E+00  0.1000E-01  0.1000E-01
     -0.803  0.0000E+00  0.0000E+00  0.1000E-01  0.1000E-01
     -0.733  0.0000E+00  0.0000E+00  0.1000E-01  0.1000E-01
     -0.663  0.0000E+00  0.0000E+00  0.1000E-01  0.1000E-01
     -0.593  0.0000E+00  0.0000E+00  0.1000E-01  0.1000E-01
     -0.523  0.6938E-13  0.1570E-12  0.1000E-01  0.1000E-01
     -0.453  0.1061E-07  0.1911E-07  0.1000E-01  0.1000E-01
     -0.382  0.3633E-04  0.5242E-04  0.1000E-01  0.1000E-01
     -0.312  0.3306E-02  0.3884E-02  0.1023E-01  0.1028E-01
     -0.242  0.1205E-01  0.1188E-01  0.1108E-01  0.1111E-01
     -0.172  0.2403E-02  0.1980E-02  0.1125E-01  0.1125E-01
     -0.102  0.1819E-04  0.1216E-04  0.1125E-01  0.1125E-01
     -0.031  0.3557E-08  0.1902E-08  0.1125E-01  0.1125E-01
      0.039  0.1976E-13  0.6569E-14  0.1125E-01  0.1125E-01
      0.109  0.1401E-08  0.9281E-11  0.1125E-01  0.1125E-01
      0.179  0.9972E-05  0.3410E-06  0.1125E-01  0.1125E-01
      0.249  0.1797E-02  0.2934E-03  0.1138E-01  0.1127E-01
      0.320  0.1177E-01  0.7581E-02  0.1220E-01  0.1180E-01
      0.390  0.5839E-02  0.1135E-01  0.1261E-01  0.1260E-01
      0.460  0.1578E-01  0.1722E-01  0.1372E-01  0.1381E-01
      0.530  0.1632E-01  0.1545E-01  0.1487E-01  0.1489E-01
      0.600  0.1904E-02  0.1525E-02  0.1500E-01  0.1500E-01
      0.671  0.1036E-04  0.6678E-05  0.1500E-01  0.1500E-01
      0.741  0.1479E-08  0.7547E-09  0.1500E-01  0.1500E-01
      0.811  0.4658E-14  0.1874E-14  0.1500E-01  0.1500E-01
      0.881  0.0000E+00  0.0000E+00  0.1500E-01  0.1500E-01
      0.951  0.0000E+00  0.0000E+00  0.1500E-01  0.1500E-01
      1.021  0.0000E+00  0.0000E+00  0.1500E-01  0.1500E-01
      1.092  0.0000E+00  0.0000E+00  0.1500E-01  0.1500E-01
      1.162  0.0000E+00  0.0000E+00  0.1500E-01  0.1500E-01
      1.232  0.0000E+00  0.0000E+00  0.1500E-01  0.1500E-01
      1.302  0.0000E+00  0.0000E+00  0.1500E-01  0.1500E-01
      1.372  0.0000E+00  0.0000E+00  0.1500E-01  0.1500E-01
      1.443  0.0000E+00  0.0000E+00  0.1500E-01  0.1500E-01
