    2    2  800    2
  0.1687500E+04  0.1500000E-08  0.1500000E-08  0.1500000E-08  0.5000000E-15
  1.000000000000000E-004
  CAR 
 unknown system                          
     10      1     12
 
  0.0000000E+00  0.0000000E+00  0.0000000E+00  0.1000000E+01
    1      -18.657084    -18.655564
    2      -17.061303    -17.062835
    3       -7.961540     -7.960053
    4       -7.961257     -7.959724
    5       -7.531753     -7.533279
    6       -5.393045     -5.392040
    7       -4.704746     -4.705835
    8       -4.697085     -4.697704
    9       -0.280787     -0.284956
   10        0.294400      0.324771
   11        0.437119      0.433624
   12        0.485475      0.481130
