[0] MPI startup(): Multi-threaded optimized library
[2] MPI startup(): shm and tmi data transfer modes
[3] MPI startup(): shm and tmi data transfer modes
[5] MPI startup(): shm and tmi data transfer modes
[4] MPI startup(): shm and tmi data transfer modes
[1] MPI startup(): shm and tmi data transfer modes
[6] MPI startup(): shm and tmi data transfer modes
[9] MPI startup(): shm and tmi data transfer modes
[10] MPI startup(): shm and tmi data transfer modes
[7] MPI startup(): shm and tmi data transfer modes
[8] MPI startup(): shm and tmi data transfer modes
[11] MPI startup(): shm and tmi data transfer modes
[0] MPI startup(): shm and tmi data transfer modes
[0] MPI startup(): Rank    Pid      Node name  Pin cpu
[0] MPI startup(): 0       42787    n006.hpc   0
[0] MPI startup(): 1       42788    n006.hpc   1
[0] MPI startup(): 2       42789    n006.hpc   2
[0] MPI startup(): 3       42790    n006.hpc   3
[0] MPI startup(): 4       42791    n006.hpc   4
[0] MPI startup(): 5       42792    n006.hpc   5
[0] MPI startup(): 6       42793    n006.hpc   6
[0] MPI startup(): 7       42794    n006.hpc   7
[0] MPI startup(): 8       42795    n006.hpc   8
[0] MPI startup(): 9       42796    n006.hpc   9
[0] MPI startup(): 10      42797    n006.hpc   10
[0] MPI startup(): 11      42798    n006.hpc   11
[0] MPI startup(): I_MPI_DEBUG=5
[0] MPI startup(): I_MPI_FABRICS=shm:tmi
[0] MPI startup(): I_MPI_HYDRA_UUID=10a70000-723c-60bf-d8b1-05006410c0a8
[0] MPI startup(): I_MPI_INFO_NUMA_NODE_MAP=qib0:0
[0] MPI startup(): I_MPI_INFO_NUMA_NODE_NUM=2
[0] MPI startup(): I_MPI_PIN_MAPPING=12:0 0,1 1,2 2,3 3,4 4,5 5,6 6,7 7,8 8,9 9,10 10,11 11
[0] MPI startup(): I_MPI_TMI_PROVIDER=psm
 running on   12 total cores
 distrk:  each k-point on   12 cores,    1 groups
 distr:  one band on    3 cores,    4 groups
 using from now: INCAR     
 vasp.5.3.5 31Mar14 (build Oct 26 2016 13:29:44) complex                        
  
 POSCAR found type information on POSCAR  N 
 POSCAR found :  1 types and       2 ions
 scaLAPACK will be used
 LDA part: xc-table for Pade appr. of Perdew
 POSCAR found type information on POSCAR  N 
 POSCAR found :  1 types and       2 ions
 POSCAR, INCAR and KPOINTS ok, starting setup
 WARNING: small aliasing (wrap around) errors must be expected
 FFT: planning ...
 WAVECAR not read
 entering main loop
       N       E                     dE             d eps       ncg     rms          rms(c)
DAV:   1     0.517867108763E+02    0.51787E+02   -0.17665E+03    80   0.286E+02
DAV:   2    -0.244191297895E+01   -0.54229E+02   -0.49342E+02    80   0.820E+01
DAV:   3    -0.124932301001E+02   -0.10051E+02   -0.10040E+02    64   0.412E+01
DAV:   4    -0.127246656190E+02   -0.23144E+00   -0.23142E+00    88   0.816E+00
DAV:   5    -0.127252459401E+02   -0.58032E-03   -0.58031E-03    52   0.315E-01    0.837E+00
DAV:   6    -0.805096435854E+01    0.46743E+01   -0.74646E+00    48   0.112E+01    0.314E+00
DAV:   7    -0.111726112917E+02   -0.31216E+01   -0.17429E+00    48   0.542E+00    0.167E+00
DAV:   8    -0.126997839313E+02   -0.15272E+01   -0.59031E-01    52   0.294E+00    0.735E-01
DAV:   9    -0.129642931738E+02   -0.26451E+00   -0.32361E-02    48   0.105E+00    0.342E-01
DAV:  10    -0.131345780123E+02   -0.17028E+00   -0.12289E-02    48   0.616E-01    0.163E-01
DAV:  11    -0.132057436989E+02   -0.71166E-01   -0.58006E-03    52   0.316E-01    0.108E-01
DAV:  12    -0.132498586729E+02   -0.44115E-01   -0.46990E-03    52   0.302E-01    0.580E-02
DAV:  13    -0.132814650790E+02   -0.31606E-01   -0.26327E-03    48   0.209E-01    0.395E-02
DAV:  14    -0.132993210823E+02   -0.17856E-01   -0.70940E-04    52   0.112E-01    0.110E-02
DAV:  15    -0.133027688744E+02   -0.34478E-02   -0.84936E-05    56   0.483E-02    0.578E-03
DAV:  16    -0.133047462073E+02   -0.19773E-02   -0.52870E-05    48   0.281E-02    0.246E-03
DAV:  17    -0.133048848473E+02   -0.13864E-03   -0.46387E-06    52   0.118E-02    0.151E-03
DAV:  18    -0.133049068488E+02   -0.22001E-04   -0.32059E-06    48   0.950E-03
   1 F= -.13304907E+02 E0= -.13304907E+02  d E =-.133049E+02  mag=    -0.0005
 curvature:   0.00 expect dE= 0.000E+00 dE for cont linesearch  0.000E+00
 trial: gam= 0.00000 g(F)=  0.226E+02 g(S)=  0.000E+00 ort = 0.000E+00 (trialstep = 0.100E+01)
 search vector abs. value=  0.226E+02
 bond charge predicted
       N       E                     dE             d eps       ncg     rms          rms(c)
DAV:   1     0.515296563154E+04    0.51663E+04   -0.35111E+03    48   0.349E+02    0.526E+01
DAV:   2     0.515021271954E+04   -0.27529E+01   -0.12876E+02    52   0.102E+02    0.289E+01
DAV:   3     0.515942588461E+04    0.92132E+01   -0.19231E+01    52   0.332E+01    0.689E+00
DAV:   4     0.515960594789E+04    0.18006E+00   -0.10114E+00    60   0.793E+00    0.316E+00
DAV:   5     0.515976638175E+04    0.16043E+00   -0.19356E-01    56   0.285E+00    0.107E+00
DAV:   6     0.515978892086E+04    0.22539E-01   -0.54696E-02    60   0.179E+00    0.713E-01
DAV:   7     0.515978850478E+04   -0.41608E-03   -0.19559E-02    64   0.886E-01    0.512E-01
DAV:   8     0.515977740615E+04   -0.11099E-01   -0.22613E-01    64   0.650E-01    0.582E-01
DAV:   9     0.515979189553E+04    0.14489E-01   -0.21069E-01    60   0.484E-01    0.175E-01
DAV:  10     0.515978989277E+04   -0.20028E-02   -0.15817E-02    60   0.241E-01    0.236E-01
DAV:  11     0.515978945346E+04   -0.43931E-03   -0.95137E-04    56   0.633E-02    0.243E-01
DAV:  12     0.515978980502E+04    0.35156E-03   -0.59376E-03    56   0.638E-02    0.212E-01
DAV:  13     0.515978820585E+04   -0.15992E-02   -0.49543E-03    56   0.114E-01    0.123E-01
DAV:  14     0.515978655602E+04   -0.16498E-02   -0.29836E-03    56   0.107E-01    0.130E-01
DAV:  15     0.515978607079E+04   -0.48523E-03   -0.25602E-03    56   0.781E-02    0.118E-01
DAV:  16     0.515978583461E+04   -0.23617E-03   -0.23220E-04    56   0.386E-02    0.864E-02
DAV:  17     0.515978544529E+04   -0.38933E-03   -0.23386E-04    48   0.673E-02    0.302E-02
DAV:  18     0.515978532018E+04   -0.12511E-03   -0.39326E-04    40   0.242E-02    0.338E-02
DAV:  19     0.515978529186E+04   -0.28316E-04   -0.49934E-04    32   0.275E-02
   2 F= 0.51597853E+04 E0= 0.51597854E+04  d E =0.517309E+04  mag=    -0.0000
 ZBRENT: can't locate minimum, use default step
 trial-energy change: 5173.090199  1 .order************  -22.556956************
 step:   4.0000(harm=  4.0000)  dis= 2.95054  next Energy=************* (dE=-0.113E+07)
 bond charge predicted
       N       E                     dE             d eps       ncg     rms          rms(c)
DAV:   1     0.121207286792E+02   -0.51477E+04   -0.48855E+03    56   0.329E+02    0.384E+01
DAV:   2    -0.866799580552E+01   -0.20789E+02   -0.62396E+02    64   0.800E+01    0.389E+01
DAV:   3    -0.868091277220E+01   -0.12917E-01   -0.48832E+01    64   0.303E+01    0.333E+01
DAV:   4    -0.440606070763E+01    0.42749E+01   -0.24416E+01    56   0.113E+01    0.268E+01
DAV:   5    -0.300347450142E+01    0.14026E+01   -0.97597E+01    56   0.406E+01    0.165E+01
DAV:   6    -0.186964864869E+01    0.11338E+01   -0.12228E+01    56   0.126E+01    0.145E+01
DAV:   7    -0.367286881549E+01   -0.18032E+01   -0.22720E+01    60   0.821E+00    0.142E+01
DAV:   8    -0.299564439221E+01    0.67722E+00   -0.76376E+00    72   0.702E+00    0.123E+01
DAV:   9    -0.265596125982E+01    0.33968E+00   -0.17893E+00    48   0.382E+00    0.786E+00
DAV:  10    -0.274600713774E+01   -0.90046E-01   -0.10908E+00    56   0.241E+00    0.914E+00
DAV:  11    -0.262326363204E+01    0.12274E+00   -0.19150E-01    56   0.119E+00    0.792E+00
DAV:  12    -0.263368974748E+01   -0.10426E-01   -0.17084E-02    48   0.664E-01    0.690E+00
DAV:  13    -0.277235565859E+01   -0.13867E+00   -0.11679E+00    48   0.301E+00    0.934E+00
DAV:  14    -0.282187770971E+01   -0.49522E-01   -0.41578E-02    56   0.112E+00    0.944E+00
DAV:  15    -0.279311607441E+01    0.28762E-01   -0.30241E-02    56   0.724E-01    0.931E+00
DAV:  16    -0.264878186932E+01    0.14433E+00   -0.81258E-01    56   0.134E+00    0.617E+00
DAV:  17    -0.264094309921E+01    0.78388E-02   -0.40428E-01    52   0.192E+00    0.459E+00
DAV:  18    -0.267768078005E+01   -0.36738E-01   -0.46165E-02    64   0.641E-01    0.510E+00
DAV:  19    -0.276084125304E+01   -0.83160E-01   -0.21869E+00    56   0.149E+00    0.878E+00
DAV:  20    -0.260137450344E+01    0.15947E+00   -0.39826E-01    48   0.169E+00    0.488E+00
DAV:  21    -0.264254601998E+01   -0.41172E-01   -0.30885E-02    64   0.652E-01    0.518E+00
DAV:  22    -0.273431685441E+01   -0.91771E-01   -0.16447E+00    56   0.151E+00    0.627E+00
DAV:  23    -0.278969094274E+01   -0.55374E-01   -0.44701E-02    56   0.114E+00    0.563E+00
DAV:  24    -0.270039108480E+01    0.89300E-01   -0.64281E-02    48   0.702E-01    0.564E+00
DAV:  25    -0.259308255074E+01    0.10731E+00   -0.14290E-01    72   0.687E-01    0.441E+00
DAV:  26    -0.264439783431E+01   -0.51315E-01   -0.16789E-01    56   0.130E+00    0.454E+00
DAV:  27    -0.268505996043E+01   -0.40662E-01   -0.12923E-01    56   0.114E+00    0.365E+00
DAV:  28    -0.269187368022E+01   -0.68137E-02   -0.22494E-03    64   0.294E-01    0.364E+00
DAV:  29    -0.269343791694E+01   -0.15642E-02   -0.33519E-03    48   0.878E-02    0.361E+00
DAV:  30    -0.268978230298E+01    0.36556E-02   -0.18677E-03    64   0.139E-01    0.382E+00
DAV:  31    -0.267189574227E+01    0.17887E-01   -0.39116E-02    48   0.464E-01    0.279E+00
DAV:  32    -0.269805704087E+01   -0.26161E-01   -0.30076E-01    56   0.161E+00    0.228E+00
DAV:  33    -0.273534893755E+01   -0.37292E-01   -0.16842E-01    64   0.123E+00    0.183E+00
DAV:  34    -0.276527277887E+01   -0.29924E-01   -0.10501E-01    56   0.645E-01    0.285E+00
DAV:  35    -0.274822453351E+01    0.17048E-01   -0.39823E-02    64   0.699E-01    0.291E+00
DAV:  36    -0.274260826424E+01    0.56163E-02   -0.79941E-04    56   0.215E-01    0.281E+00
DAV:  37    -0.274577545078E+01   -0.31672E-02   -0.13262E-02    64   0.354E-01    0.290E+00
DAV:  38    -0.274142183715E+01    0.43536E-02   -0.95708E-02    64   0.947E-01    0.340E+00
DAV:  39    -0.273667805380E+01    0.47438E-02   -0.60546E-03    56   0.355E-01    0.313E+00
DAV:  40    -0.273986237056E+01   -0.31843E-02   -0.11100E-02    48   0.247E-01    0.368E+00
DAV:  41    -0.272964927803E+01    0.10213E-01   -0.15427E-01    52   0.119E+00    0.355E+00
DAV:  42    -0.273930420083E+01   -0.96549E-02   -0.77969E-02    72   0.887E-01    0.401E+00
DAV:  43    -0.274047023678E+01   -0.11660E-02   -0.25791E-02    60   0.466E-01    0.378E+00
DAV:  44    -0.273594722850E+01    0.45230E-02   -0.20402E-02    60   0.469E-01    0.357E+00
DAV:  45    -0.272350589008E+01    0.12441E-01   -0.84996E-02    56   0.858E-01    0.344E+00
DAV:  46    -0.272426847640E+01   -0.76259E-03   -0.18680E-01    64   0.108E+00    0.162E+00
DAV:  47    -0.277124380471E+01   -0.46975E-01   -0.11825E-01    48   0.860E-01    0.332E+00
DAV:  48    -0.273262372291E+01    0.38620E-01   -0.59075E-02    56   0.933E-01    0.363E+00
DAV:  49    -0.266712691303E+01    0.65497E-01   -0.48142E-03    56   0.466E-01    0.387E+00
DAV:  50    -0.263661257886E+01    0.30514E-01   -0.68821E-04    64   0.184E-01    0.386E+00
DAV:  51    -0.263046261137E+01    0.61500E-02   -0.43367E-05    36   0.369E-02    0.386E+00
DAV:  52    -0.264437346359E+01   -0.13911E-01   -0.15061E-02    52   0.337E-01    0.448E+00
DAV:  53    -0.258658771894E+01    0.57786E-01   -0.19907E-02    56   0.537E-01    0.399E+00
DAV:  54    -0.259968216813E+01   -0.13094E-01   -0.59657E-02    52   0.735E-01    0.285E+00
DAV:  55    -0.269243992086E+01   -0.92758E-01   -0.25178E-02    64   0.626E-01    0.272E+00
DAV:  56    -0.272083724833E+01   -0.28397E-01   -0.11040E-02    64   0.367E-01    0.268E+00
DAV:  57    -0.272135289282E+01   -0.51564E-03   -0.53848E-02    48   0.642E-01    0.234E+00
DAV:  58    -0.273593479311E+01   -0.14582E-01   -0.99466E-03    64   0.374E-01    0.190E+00
DAV:  59    -0.275394678246E+01   -0.18012E-01   -0.81587E-02    52   0.842E-01    0.262E+00
DAV:  60    -0.274417152756E+01    0.97753E-02   -0.41795E-02    56   0.630E-01
   3 F= -.27441715E+01 E0= -.27377963E+01  d E =0.105607E+02  mag=    -0.0028
 curvature:  -0.00 expect dE=-0.248E-05 dE for cont linesearch -0.248E-05
 ZBRENT: interpolating
 opt :   4.0000  next Energy=    -2.744172 (dE= 0.106E+02)
 bond charge predicted
       N       E                     dE             d eps       ncg     rms          rms(c)
DAV:   1    -0.269379821577E+01    0.60149E-01   -0.20702E-03    64   0.302E-01    0.400E+00
DAV:   2    -0.283099137127E+01   -0.13719E+00   -0.82444E+00    48   0.676E+00    0.414E+00
DAV:   3    -0.273220663042E+01    0.98785E-01   -0.29739E-01    80   0.313E+00    0.287E+00
DAV:   4    -0.350296825046E+01   -0.77076E+00   -0.38652E-01    48   0.263E+00    0.226E+00
DAV:   5    -0.380840158507E+01   -0.30543E+00   -0.61333E-02    72   0.151E+00    0.114E+00
DAV:   6    -0.390743329098E+01   -0.99032E-01   -0.10779E-02    56   0.654E-01    0.635E-01
DAV:   7    -0.411885284044E+01   -0.21142E+00   -0.30513E-02    56   0.860E-01    0.240E-01
DAV:   8    -0.420093557256E+01   -0.82083E-01   -0.11301E-02    72   0.489E-01    0.984E-02
DAV:   9    -0.423674351615E+01   -0.35808E-01   -0.41857E-03    80   0.263E-01    0.450E-02
DAV:  10    -0.426038001516E+01   -0.23636E-01   -0.13801E-03    76   0.135E-01    0.282E-02
DAV:  11    -0.427007357091E+01   -0.96936E-02   -0.12594E-04    80   0.537E-02    0.105E-02
DAV:  12    -0.427696437320E+01   -0.68908E-02   -0.40747E-05    56   0.302E-02    0.747E-03
DAV:  13    -0.427815244695E+01   -0.11881E-02   -0.17165E-05    64   0.175E-02    0.257E-03
DAV:  14    -0.427817295168E+01   -0.20505E-04   -0.49510E-06    40   0.117E-02
   4 F= -.42781730E+01 E0= -.42781730E+01  d E =0.902673E+01  mag=     0.0000
 curvature:  -0.00 expect dE=-0.190E-08 dE for cont linesearch -0.190E-08
 trial: gam= 0.00000 g(F)=  0.795E-05 g(S)=  0.000E+00 ort =-0.134E-01 (trialstep = 0.160E+01)
 search vector abs. value=  0.795E-05
 reached required accuracy - stopping structural energy minimisation
