unknown system                          
           1
    15.000000    0.000000    0.000000
     0.000000   15.000000    0.000000
     0.000000    0.000000   15.000000
   N 
   2
Direct configuration=     1
   0.50000000  0.50000000  0.45979748
   0.50000000  0.50000000  0.55406919
Direct configuration=     2
   0.50000000  0.50000000  0.50897307
   0.50000000  0.50000000  0.50489360
Direct configuration=     3
   0.50000000  0.50000000  0.65649984
   0.50000000  0.50000000  0.35736683
Direct configuration=     4
   0.50000000  0.50000000  0.65649961
   0.50000000  0.50000000  0.35736705
