    4    4  800    2
  0.8437500E+03  0.1500000E-08  0.1500000E-08  0.1500000E-08  0.5000000E-15
  1.000000000000000E-004
  CAR 
 unknown system                          
     14      1     16
 
  0.0000000E+00  0.0000000E+00  0.0000000E+00  0.1000000E+01
    1      -28.061968    -28.061968   1.000000   1.000000
    2      -22.538464    -22.538464   1.000000   1.000000
    3      -13.332503    -13.332503   1.000000   1.000000
    4      -11.937383    -11.937383   1.000000   1.000000
    5      -10.241942    -10.241941   1.000000   1.000000
    6       -7.499802     -7.499803   1.000000   1.000000
    7       -6.439540     -6.439540   1.000000   1.000000
    8       -1.663646     -1.663646   0.000000   0.000000
    9       -0.836210     -0.836225   0.000000   0.000000
   10        0.097853      0.097861   0.000000   0.000000
   11        0.177096      0.177084   0.000000   0.000000
   12        0.524232      0.524209   0.000000   0.000000
   13        0.586984      0.586974   0.000000   0.000000
   14        0.590151      0.590148   0.000000   0.000000
   15        0.614996      0.614998   0.000000   0.000000
   16        0.835671      0.835680   0.000000   0.000000
