    3    3  800    2
  0.1125000E+04  0.1500000E-08  0.1500000E-08  0.1500000E-08  0.5000000E-15
  1.000000000000000E-004
  CAR 
 unknown system                          
     18      1     16
 
  0.0000000E+00  0.0000000E+00  0.0000000E+00  0.1000000E+01
    1      -34.211292    -34.188741
    2      -27.487223    -27.444263
    3      -19.451502    -19.405589
    4      -14.749432    -14.737237
    5      -14.686731    -14.649316
    6      -14.316694    -14.279444
    7       -9.150913     -9.127879
    8       -8.122163     -8.058733
    9       -7.921435     -7.819912
   10       -6.219290     -6.198378
   11       -0.445270     -0.433188
   12       -0.201964     -0.228118
   13        0.321572      0.342636
   14        0.468010      0.428222
   15        0.531894      0.483631
   16        0.565413      0.525337
