       N       E                     dE             d eps       ncg     rms          rms(c)
DAV:   1     0.146552591032E+03    0.14655E+03   -0.39399E+03    96   0.510E+02
DAV:   2     0.319388734737E+02   -0.11461E+03   -0.11340E+03   104   0.125E+02
DAV:   3    -0.877382289514E+01   -0.40713E+02   -0.37959E+02   104   0.705E+01
DAV:   4    -0.138826516236E+02   -0.51088E+01   -0.51051E+01    64   0.217E+01
DAV:   5    -0.139689796304E+02   -0.86328E-01   -0.86214E-01    80   0.381E+00    0.147E+01
DAV:   6    -0.484810789179E+01    0.91209E+01   -0.18922E+01    64   0.294E+01    0.641E+00
DAV:   7    -0.965433983008E+01   -0.48062E+01   -0.37095E+00    64   0.131E+01    0.352E+00
DAV:   8    -0.116104378501E+02   -0.19561E+01   -0.12216E+00    80   0.869E+00    0.310E+00
DAV:   9    -0.124734106172E+02   -0.86297E+00   -0.42237E-01   112   0.522E+00    0.937E-01
DAV:  10    -0.127164681654E+02   -0.24306E+00   -0.70711E-02    64   0.205E+00    0.545E-01
DAV:  11    -0.128911858275E+02   -0.17472E+00   -0.33256E-02    88   0.115E+00    0.413E-01
DAV:  12    -0.129710315803E+02   -0.79846E-01   -0.74422E-03    72   0.663E-01    0.272E-01
DAV:  13    -0.130681691258E+02   -0.97138E-01   -0.57420E-03    88   0.481E-01    0.178E-01
DAV:  14    -0.131760085604E+02   -0.10784E+00   -0.18986E-03    64   0.257E-01    0.134E-01
DAV:  15    -0.133324815812E+02   -0.15647E+00   -0.32444E-03    96   0.285E-01    0.648E-02
DAV:  16    -0.133966022159E+02   -0.64121E-01   -0.12974E-03    80   0.167E-01    0.341E-02
DAV:  17    -0.134125644561E+02   -0.15962E-01   -0.62527E-04    72   0.939E-02    0.218E-02
DAV:  18    -0.134149999019E+02   -0.24354E-02   -0.10689E-04    56   0.573E-02    0.978E-03
DAV:  19    -0.134145538716E+02    0.44603E-03   -0.41633E-05    56   0.311E-02    0.656E-03
DAV:  20    -0.134148203369E+02   -0.26647E-03   -0.24159E-05    80   0.231E-02    0.498E-03
DAV:  21    -0.134154948262E+02   -0.67449E-03   -0.24674E-05    64   0.204E-02    0.362E-03
DAV:  22    -0.134159553455E+02   -0.46052E-03   -0.13417E-05    64   0.147E-02    0.221E-03
DAV:  23    -0.134160291487E+02   -0.73803E-04   -0.54794E-06    64   0.102E-02
   1 F= -.13416029E+02 E0= -.13424588E+02  d E =-.134160E+02  mag=     0.1055
       N       E                     dE             d eps       ncg     rms          rms(c)
DAV:   1    -0.129789637674E+02    0.43699E+00   -0.13935E+02    96   0.918E+01    0.397E+00
DAV:   2    -0.133707084750E+02   -0.39174E+00   -0.48046E+00    88   0.176E+01    0.497E+00
DAV:   3    -0.131669275196E+02    0.20378E+00   -0.45760E-01   104   0.747E+00    0.201E+00
DAV:   4    -0.131507728194E+02    0.16155E-01   -0.11029E-01    96   0.326E+00    0.118E+00
DAV:   5    -0.131505901089E+02    0.18271E-03   -0.23634E-02    80   0.120E+00    0.503E-01
DAV:   6    -0.131563283033E+02   -0.57382E-02   -0.41912E-03    80   0.538E-01    0.267E-01
DAV:   7    -0.131590027909E+02   -0.26745E-02   -0.54520E-03    88   0.358E-01    0.315E-01
DAV:   8    -0.131650790817E+02   -0.60763E-02   -0.19163E-03    80   0.237E-01    0.148E-01
DAV:   9    -0.131659647263E+02   -0.88564E-03   -0.29690E-04    72   0.166E-01    0.824E-02
DAV:  10    -0.131666589520E+02   -0.69423E-03   -0.72246E-04    80   0.241E-01    0.130E-01
DAV:  11    -0.131653945992E+02    0.12644E-02   -0.65008E-04    72   0.275E-01    0.112E-01
DAV:  12    -0.131667339783E+02   -0.13394E-02   -0.13424E-04    48   0.141E-01    0.108E-01
DAV:  13    -0.131556391536E+02    0.11095E-01   -0.81852E-03    96   0.929E-01    0.179E-01
DAV:  14    -0.131602981674E+02   -0.46590E-02   -0.49185E-03    80   0.775E-01    0.169E-01
DAV:  15    -0.131600901018E+02    0.20807E-03   -0.31390E-03    88   0.506E-01    0.131E-01
DAV:  16    -0.131563048848E+02    0.37852E-02   -0.45159E-03   104   0.654E-01    0.105E-01
DAV:  17    -0.131637524502E+02   -0.74476E-02   -0.10874E-03    72   0.288E-01    0.681E-02
DAV:  18    -0.131664243167E+02   -0.26719E-02   -0.64233E-04    80   0.220E-01    0.584E-02
DAV:  19    -0.131663178788E+02    0.10644E-03   -0.11944E-03    88   0.331E-01
   2 F= -.13166318E+02 E0= -.13170625E+02  d E =0.249711E+00  mag=     0.0724
       N       E                     dE             d eps       ncg     rms          rms(c)
DAV:   1    -0.133716556013E+02   -0.20523E+00   -0.71568E+01    64   0.666E+01    0.263E+00
DAV:   2    -0.135446536228E+02   -0.17300E+00   -0.22612E+00    88   0.123E+01    0.305E+00
DAV:   3    -0.134685824822E+02    0.76071E-01   -0.18679E-01   104   0.453E+00    0.130E+00
DAV:   4    -0.134632105690E+02    0.53719E-02   -0.43494E-02    88   0.213E+00    0.129E+00
DAV:   5    -0.134535252368E+02    0.96853E-02   -0.24778E-02    96   0.159E+00    0.734E-01
DAV:   6    -0.134581702736E+02   -0.46450E-02   -0.61447E-03   112   0.760E-01    0.322E-01
DAV:   7    -0.134678149242E+02   -0.96447E-02   -0.32155E-03    96   0.369E-01    0.294E-01
DAV:   8    -0.134683959273E+02   -0.58100E-03   -0.24086E-04    80   0.125E-01    0.290E-01
DAV:   9    -0.134635773437E+02    0.48186E-02   -0.23301E-03    96   0.340E-01    0.334E-01
DAV:  10    -0.134657502389E+02   -0.21729E-02   -0.76688E-04    88   0.249E-01    0.148E-01
DAV:  11    -0.134580913312E+02    0.76589E-02   -0.79072E-04    88   0.238E-01    0.226E-01
DAV:  12    -0.134575562863E+02    0.53504E-03   -0.17151E-04    80   0.111E-01    0.219E-01
DAV:  13    -0.134655597521E+02   -0.80035E-02   -0.13316E-03    72   0.274E-01    0.116E-01
DAV:  14    -0.134699262422E+02   -0.43665E-02   -0.46535E-04    72   0.138E-01    0.636E-02
DAV:  15    -0.134735060196E+02   -0.35798E-02   -0.17612E-04    72   0.699E-02    0.846E-02
DAV:  16    -0.134748342098E+02   -0.13282E-02   -0.11958E-04    72   0.806E-02    0.269E-02
DAV:  17    -0.134760794876E+02   -0.12453E-02   -0.12005E-04    64   0.728E-02    0.150E-02
DAV:  18    -0.134766121417E+02   -0.53265E-03   -0.33956E-05    48   0.373E-02    0.782E-03
DAV:  19    -0.134765459214E+02    0.66220E-04   -0.33987E-05    56   0.271E-02
   3 F= -.13476546E+02 E0= -.13485095E+02  d E =-.605168E-01  mag=     0.1256
       N       E                     dE             d eps       ncg     rms          rms(c)
DAV:   1    -0.134766539016E+02   -0.41760E-04   -0.16600E-02    96   0.102E+00    0.481E-02
DAV:   2    -0.134768502270E+02   -0.19633E-03   -0.49793E-04    64   0.193E-01
   4 F= -.13476850E+02 E0= -.13485510E+02  d E =-.608211E-01  mag=     0.1242
       N       E                     dE             d eps       ncg     rms          rms(c)
DAV:   1    -0.134809449472E+02   -0.42910E-02   -0.84470E+00    64   0.234E+01    0.115E+00
DAV:   2    -0.134708503225E+02    0.10095E-01   -0.17264E-01    80   0.344E+00    0.683E-01
DAV:   3    -0.134640458362E+02    0.68045E-02   -0.15250E-02    96   0.129E+00    0.410E-01
DAV:   4    -0.134673249084E+02   -0.32791E-02   -0.59245E-03    88   0.877E-01    0.355E-01
DAV:   5    -0.134708808894E+02   -0.35560E-02   -0.25384E-03    88   0.550E-01    0.474E-02
DAV:   6    -0.134751913172E+02   -0.43104E-02   -0.45850E-04    64   0.171E-01    0.266E-02
DAV:   7    -0.134766063167E+02   -0.14150E-02   -0.37128E-05    64   0.502E-02    0.151E-02
DAV:   8    -0.134780497431E+02   -0.14434E-02   -0.25651E-05    56   0.331E-02    0.490E-03
DAV:   9    -0.134784171441E+02   -0.36740E-03   -0.96846E-06    80   0.169E-02    0.279E-03
DAV:  10    -0.134786592302E+02   -0.24209E-03   -0.54790E-06    48   0.104E-02    0.176E-03
DAV:  11    -0.134788924212E+02   -0.23319E-03   -0.76123E-06    56   0.104E-02    0.925E-04
DAV:  12    -0.134789262400E+02   -0.33819E-04   -0.27595E-06    56   0.663E-03
   5 F= -.13478926E+02 E0= -.13483260E+02  d E =-.207601E-02  mag=     0.0689
       N       E                     dE             d eps       ncg     rms          rms(c)
DAV:   1    -0.134886513985E+02   -0.97590E-02   -0.19074E+00    64   0.111E+01    0.508E-01
DAV:   2    -0.134882573277E+02    0.39407E-03   -0.37509E-02    80   0.158E+00    0.304E-01
DAV:   3    -0.134875340525E+02    0.72328E-03   -0.28239E-03    72   0.543E-01    0.178E-01
DAV:   4    -0.134878685339E+02   -0.33448E-03   -0.10187E-03    88   0.374E-01    0.172E-01
DAV:   5    -0.134877270458E+02    0.14149E-03   -0.37390E-04    56   0.239E-01
   6 F= -.13487727E+02 E0= -.13493357E+02  d E =-.108768E-01  mag=     0.0738
       N       E                     dE             d eps       ncg     rms          rms(c)
DAV:   1    -0.134879731508E+02   -0.10462E-03   -0.17133E-02    88   0.105E+00    0.549E-02
DAV:   2    -0.134879957041E+02   -0.22553E-04   -0.41052E-04    88   0.177E-01
   7 F= -.13487996E+02 E0= -.13493980E+02  d E =-.111455E-01  mag=     0.0754
       N       E                     dE             d eps       ncg     rms          rms(c)
DAV:   1    -0.134870508286E+02    0.92232E-03   -0.62984E-01    96   0.639E+00    0.269E-01
DAV:   2    -0.134889645246E+02   -0.19137E-02   -0.21305E-02    80   0.138E+00    0.458E-01
DAV:   3    -0.134868498282E+02    0.21147E-02   -0.27159E-03   104   0.614E-01    0.130E-01
DAV:   4    -0.134871113097E+02   -0.26148E-03   -0.71107E-04    72   0.223E-01    0.583E-02
DAV:   5    -0.134873336722E+02   -0.22236E-03   -0.77289E-05    64   0.824E-02    0.200E-02
DAV:   6    -0.134874852167E+02   -0.15154E-03   -0.17043E-05    48   0.366E-02
   8 F= -.13487485E+02 E0= -.13493357E+02  d E =0.510487E-03  mag=     0.0778
       N       E                     dE             d eps       ncg     rms          rms(c)
DAV:   1    -0.134884676147E+02   -0.11339E-02   -0.20391E-01    96   0.364E+00    0.150E-01
DAV:   2    -0.134892228926E+02   -0.75528E-03   -0.67593E-03    64   0.763E-01    0.255E-01
DAV:   3    -0.134885611264E+02    0.66177E-03   -0.73050E-04    80   0.340E-01    0.782E-02
DAV:   4    -0.134887761255E+02   -0.21500E-03   -0.28770E-04    64   0.142E-01    0.340E-02
DAV:   5    -0.134889002446E+02   -0.12412E-03   -0.47612E-05    56   0.659E-02
   9 F= -.13488900E+02 E0= -.13494860E+02  d E =-.904540E-03  mag=     0.0785
