    1    1  800    2
  0.3375000E+04  0.1500000E-08  0.1500000E-08  0.1500000E-08  0.5000000E-15
  1.000000000000000E-004
  CAR 
 unknown system                          
      4      1     24
 
  0.0000000E+00  0.0000000E+00  0.0000000E+00  0.1000000E+01
    1      -14.624030    -11.861326
    2       -6.063867     -3.580720
    3       -6.063547     -3.579937
    4       -6.063452     -3.577241
    5       -0.300901     -0.044445
    6        0.259397      0.584797
    7        0.504730      0.640298
    8        0.504920      0.640686
    9        0.506001      0.653098
   10        0.633344      0.654135
   11        0.633583      0.655032
   12        1.048586      1.304267
   13        1.049012      1.305000
   14        1.049478      1.305303
   15        1.145901      1.306683
   16        1.231569      1.308142
   17        1.232372      1.309788
   18        1.232542      1.310856
   19        1.257385      1.311532
   20        1.258301      1.313176
   21        1.343464      1.319120
   22        1.343814      1.319663
   23        1.344347      1.320899
   24        1.907726      2.016600
