       N       E                     dE             d eps       ncg     rms          rms(c)
DAV:   1     0.181317005824E+02    0.18132E+02   -0.43086E+02    96   0.420E+01
DAV:   2    -0.253626422063E+00   -0.18385E+02   -0.17351E+02   192   0.774E+00
DAV:   3    -0.960198372794E+00   -0.70657E+00   -0.67615E+00    96   0.383E+00
DAV:   4    -0.973182573889E+00   -0.12984E-01   -0.12918E-01    96   0.532E-01
DAV:   5    -0.973387653939E+00   -0.20508E-03   -0.20506E-03    96   0.649E-02    0.384E+00
DAV:   6     0.464903900694E+00    0.14383E+01   -0.34133E+00    96   0.215E+00    0.116E+00
DAV:   7    -0.246429723911E+00   -0.71133E+00   -0.33034E-01    96   0.816E-01    0.539E-01
DAV:   8    -0.758901207678E+00   -0.51247E+00   -0.23002E-01    96   0.549E-01    0.409E-01
DAV:   9    -0.975533163097E+00   -0.21663E+00   -0.48826E-02    96   0.301E-01    0.759E-01
DAV:  10    -0.903861758409E+00    0.71671E-01   -0.22559E-03    96   0.101E-01    0.384E-01
DAV:  11    -0.996531471296E+00   -0.92670E-01   -0.46043E-03    96   0.967E-02    0.289E-01
DAV:  12    -0.104817110579E+01   -0.51640E-01   -0.14998E-03   144   0.611E-02    0.749E-01
DAV:  13    -0.119858611425E+01   -0.15042E+00   -0.54133E-02   144   0.284E-01    0.219E-01
DAV:  14    -0.121235493164E+01   -0.13769E-01   -0.42849E-04    96   0.508E-02    0.403E-01
DAV:  15    -0.122581668253E+01   -0.13462E-01   -0.52541E-03    96   0.842E-02    0.115E-01
DAV:  16    -0.123870323733E+01   -0.12887E-01   -0.19483E-04    96   0.305E-02    0.174E-01
DAV:  17    -0.125533339422E+01   -0.16630E-01   -0.27690E-03    96   0.748E-02    0.655E-02
DAV:  18    -0.126262053796E+01   -0.72871E-02   -0.39321E-04    96   0.317E-02    0.245E-01
DAV:  19    -0.127650732719E+01   -0.13887E-01   -0.12620E-03   144   0.507E-02    0.418E-02
DAV:  20    -0.127792680064E+01   -0.14195E-02   -0.11415E-04    96   0.289E-02    0.242E-02
DAV:  21    -0.128018411293E+01   -0.22573E-02   -0.14299E-04    96   0.148E-02    0.241E-02
DAV:  22    -0.128051693818E+01   -0.33283E-03   -0.18301E-05    96   0.708E-03    0.156E-02
DAV:  23    -0.128076180625E+01   -0.24487E-03   -0.99308E-06    96   0.401E-03    0.114E-02
DAV:  24    -0.128083480918E+01   -0.73003E-04   -0.56421E-06    96   0.337E-03
   1 F= -.12808348E+01 E0= -.12615523E+01  d E =-.128083E+01  mag=     1.9998
