    1    1  800    2
  0.3375000E+04  0.1500000E-08  0.1500000E-08  0.1500000E-08  0.5000000E-15
  1.000000000000000E-004
  CAR 
 unknown system                          
      7      1      8
 
  0.0000000E+00  0.0000000E+00  0.0000000E+00  0.1000000E+01
    1      -20.432295    -19.655906
    2       -8.154291     -7.386895
    3       -8.153638     -7.386609
    4       -8.153038     -7.386292
    5       -0.416351     -0.427991
    6        0.320256      0.268668
    7        0.612881      0.473743
    8        0.613601      0.474840
