       N       E                     dE             d eps       ncg     rms          rms(c)
DAV:   1     0.459593757990E+02    0.45959E+02   -0.10296E+03    48   0.299E+02
DAV:   2     0.774935036943E+01   -0.38210E+02   -0.38210E+02    64   0.551E+01
DAV:   3     0.260744155670E+00   -0.74886E+01   -0.70084E+01    32   0.360E+01
DAV:   4    -0.235672146763E+00   -0.49642E+00   -0.48323E+00    32   0.101E+01
DAV:   5    -0.240474006063E+00   -0.48019E-02   -0.48000E-02    48   0.102E+00    0.625E-01
DAV:   6    -0.245364418694E+00   -0.48904E-02   -0.22007E-02    32   0.155E+00    0.293E-01
DAV:   7    -0.245349458273E+00    0.14960E-04   -0.89634E-04    40   0.345E-01
   1 F= -.24534946E+00 E0= -.22606714E+00  d E =-.245349E+00  mag=     1.0000
