    5    5  800    2
  0.6750000E+03  0.1500000E-08  0.1500000E-08  0.1500000E-08  0.5000000E-15
  1.000000000000000E-004
  CAR 
 unknown system                          
      8      1     20
 
  0.0000000E+00  0.0000000E+00  0.0000000E+00  0.1000000E+01
    1      -16.973900    -16.973764
    2       -9.380249     -9.380270
    3       -9.380233     -9.380252
    4       -9.375615     -9.375419
    5       -0.424450     -0.424643
    6        0.230252      0.230408
    7        0.448422      0.447943
    8        0.504395      0.504159
    9        0.504405      0.504173
   10        0.595505      0.594592
   11        0.647852      0.648071
   12        1.033928      1.033565
   13        1.046264      1.046610
   14        1.079750      1.079704
   15        1.079790      1.079765
   16        1.157528      1.157294
   17        1.157552      1.157333
   18        1.237681      1.237138
   19        1.288997      1.289209
   20        1.318759      1.316829
