       N       E                     dE             d eps       ncg     rms          rms(c)
DAV:   1     0.102335290394E+02    0.10234E+02   -0.15286E+03   140   0.126E+02
DAV:   2    -0.170934935708E+02   -0.27327E+02   -0.27327E+02    80   0.406E+01
DAV:   3    -0.199721379321E+02   -0.28786E+01   -0.28786E+01   120   0.144E+01
DAV:   4    -0.200282254844E+02   -0.56088E-01   -0.56088E-01   120   0.179E+00
DAV:   5    -0.200282332036E+02   -0.77191E-05   -0.77191E-05   100   0.283E-02    0.155E+01
DAV:   6    -0.780587223747E+01    0.12222E+02   -0.41532E+01   100   0.176E+01    0.691E+00
DAV:   7    -0.178898356625E+02   -0.10084E+02   -0.86119E+00   100   0.740E+00    0.404E+00
DAV:   8    -0.196949085659E+02   -0.18051E+01   -0.49629E-01   120   0.194E+00    0.244E+00
DAV:   9    -0.224733516219E+02   -0.27784E+01   -0.11425E+00   140   0.239E+00    0.711E-01
DAV:  10    -0.231743672045E+02   -0.70102E+00   -0.12526E-01    80   0.805E-01    0.460E-01
DAV:  11    -0.234837739981E+02   -0.30941E+00   -0.40704E-02   160   0.514E-01    0.306E-01
DAV:  12    -0.238700248763E+02   -0.38625E+00   -0.59767E-02   120   0.495E-01    0.947E-02
DAV:  13    -0.239518901610E+02   -0.81865E-01   -0.75633E-03   120   0.172E-01    0.513E-02
DAV:  14    -0.239892462821E+02   -0.37356E-01   -0.16545E-03   120   0.878E-02    0.263E-02
DAV:  15    -0.239840111036E+02    0.52352E-02   -0.62461E-04    80   0.645E-02    0.182E-02
DAV:  16    -0.239910564238E+02   -0.70453E-02   -0.39426E-04    80   0.438E-02    0.146E-02
DAV:  17    -0.239959762752E+02   -0.49199E-02   -0.22563E-04   120   0.309E-02    0.923E-03
DAV:  18    -0.239984074598E+02   -0.24312E-02   -0.76656E-05    80   0.182E-02    0.468E-03
DAV:  19    -0.239991244246E+02   -0.71696E-03   -0.79029E-06   120   0.760E-03    0.240E-03
DAV:  20    -0.239992942280E+02   -0.16980E-03   -0.13801E-06    80   0.442E-03    0.170E-03
DAV:  21    -0.239994505305E+02   -0.15630E-03   -0.28727E-06   120   0.384E-03    0.106E-03
DAV:  22    -0.239995337987E+02   -0.83268E-04   -0.13661E-06   100   0.255E-03
   1 F= -.23999534E+02 E0= -.23999534E+02  d E =-.239995E+02  mag=     0.0001
       N       E                     dE             d eps       ncg     rms          rms(c)
DAV:   1    -0.240326400993E+02   -0.33190E-01   -0.14673E+00    80   0.437E+00    0.641E-01
DAV:   2    -0.240197024650E+02    0.12938E-01   -0.35135E-02    80   0.497E-01    0.275E-01
DAV:   3    -0.240189963682E+02    0.70610E-03   -0.20107E-02    80   0.338E-01    0.151E-01
DAV:   4    -0.240188910733E+02    0.10529E-03   -0.26890E-04   100   0.509E-02    0.136E-01
DAV:   5    -0.240189409912E+02   -0.49918E-04   -0.29729E-04    80   0.496E-02
   2 F= -.24018941E+02 E0= -.24018941E+02  d E =-.194072E-01  mag=     0.0000
       N       E                     dE             d eps       ncg     rms          rms(c)
DAV:   1    -0.240236364435E+02   -0.47454E-02   -0.11443E-01    80   0.126E+00    0.189E-01
DAV:   2    -0.240226017411E+02    0.10347E-02   -0.28322E-03    80   0.128E-01    0.869E-02
DAV:   3    -0.240225709854E+02    0.30756E-04   -0.15004E-03    80   0.923E-02    0.470E-02
DAV:   4    -0.240225573786E+02    0.13607E-04   -0.76891E-05    80   0.209E-02
   3 F= -.24022557E+02 E0= -.24022557E+02  d E =-.230236E-01  mag=     0.0000
       N       E                     dE             d eps       ncg     rms          rms(c)
DAV:   1    -0.240280066117E+02   -0.54356E-02   -0.11946E-01    80   0.139E+00    0.886E-02
DAV:   2    -0.240279894912E+02    0.17120E-04   -0.46433E-04    80   0.875E-02
   4 F= -.24027989E+02 E0= -.24027989E+02  d E =-.543211E-02  mag=     0.0000
       N       E                     dE             d eps       ncg     rms          rms(c)
DAV:   1    -0.240304587655E+02   -0.24522E-02   -0.17576E-01    80   0.171E+00    0.108E-01
DAV:   2    -0.240304860510E+02   -0.27286E-04   -0.65893E-04   160   0.103E-01
   5 F= -.24030486E+02 E0= -.24030486E+02  d E =-.792867E-02  mag=     0.0000
