       N       E                     dE             d eps       ncg     rms          rms(c)
DAV:   1     0.904538178957E+02    0.90454E+02   -0.28452E+03   472   0.636E+02
DAV:   2     0.134219942359E+02   -0.77032E+02   -0.75031E+02   736   0.920E+01
DAV:   3    -0.484840043970E+01   -0.18270E+02   -0.16887E+02   592   0.626E+01
DAV:   4    -0.632778909996E+01   -0.14794E+01   -0.12506E+01   388   0.154E+01
DAV:   5    -0.636616353189E+01   -0.38374E-01   -0.38032E-01   476   0.296E+00    0.108E+01
RMM:   6    -0.479342567311E+01    0.15727E+01   -0.35635E+00   384   0.935E+00    0.582E+00
RMM:   7    -0.518339943729E+01   -0.38997E+00   -0.81540E-01   384   0.512E+00    0.338E+00
RMM:   8    -0.555591809514E+01   -0.37252E+00   -0.44298E-01   388   0.372E+00    0.177E+00
RMM:   9    -0.585218442446E+01   -0.29627E+00   -0.10941E-01   384   0.179E+00    0.748E-01
RMM:  10    -0.608159619065E+01   -0.22941E+00   -0.42573E-02   384   0.927E-01    0.375E-01
RMM:  11    -0.621410444946E+01   -0.13251E+00   -0.10984E-02   376   0.472E-01    0.799E-01
RMM:  12    -0.618916623710E+01    0.24938E-01   -0.18446E-03   320   0.320E-01    0.227E-01
RMM:  13    -0.639892238140E+01   -0.20976E+00   -0.20458E-02   384   0.663E-01    0.358E-01
RMM:  14    -0.644398021175E+01   -0.45058E-01   -0.74977E-03   360   0.341E-01    0.144E-01
RMM:  15    -0.645238065315E+01   -0.84004E-02   -0.17159E-03   322   0.183E-01    0.194E-01
RMM:  16    -0.645239575427E+01   -0.15101E-04   -0.13332E-04   244   0.501E-02
   1 F= -.64523958E+01 E0= -.64357893E+01  d E =-.645240E+01  mag=     2.9747
       N       E                     dE             d eps       ncg     rms          rms(c)
DAV:   1    -0.650146529374E+01   -0.49085E-01   -0.58382E+00   384   0.170E+01    0.278E+00
RMM:   2    -0.644287670458E+01    0.58589E-01   -0.28024E-01   384   0.432E+00    0.186E+00
RMM:   3    -0.645044098017E+01   -0.75643E-02   -0.40853E-02   384   0.141E+00    0.170E+00
RMM:   4    -0.650906932271E+01   -0.58628E-01   -0.20704E-02   384   0.103E+00    0.207E+00
RMM:   5    -0.650583820961E+01    0.32311E-02   -0.27116E-03   296   0.294E-01    0.199E+00
RMM:   6    -0.648670310007E+01    0.19135E-01   -0.14754E-02   384   0.834E-01    0.165E+00
RMM:   7    -0.648408600952E+01    0.26171E-02   -0.67673E-03   384   0.519E-01    0.167E+00
RMM:   8    -0.649001577411E+01   -0.59298E-02   -0.11588E-02   384   0.723E-01    0.200E+00
RMM:   9    -0.649199998524E+01   -0.19842E-02   -0.32022E-03   352   0.398E-01    0.201E+00
RMM:  10    -0.649638052571E+01   -0.43805E-02   -0.31587E-03   352   0.407E-01    0.217E+00
RMM:  11    -0.649106616877E+01    0.53144E-02   -0.25102E-03   328   0.363E-01    0.213E+00
RMM:  12    -0.648488855860E+01    0.61776E-02   -0.16798E-03   318   0.265E-01    0.202E+00
RMM:  13    -0.647031272370E+01    0.14576E-01   -0.17014E-02   376   0.890E-01    0.139E+00
RMM:  14    -0.645689805595E+01    0.13415E-01   -0.15305E-02   384   0.761E-01    0.804E-01
RMM:  15    -0.645193312976E+01    0.49649E-02   -0.55378E-03   364   0.435E-01    0.555E-01
RMM:  16    -0.645145770668E+01    0.47542E-03   -0.17804E-03   328   0.257E-01    0.546E-01
RMM:  17    -0.645139508337E+01    0.62623E-04   -0.55570E-04   300   0.179E-01
   2 F= -.64513951E+01 E0= -.64362215E+01  d E =0.100067E-02  mag=     2.9974
       N       E                     dE             d eps       ncg     rms          rms(c)
DAV:   1    -0.648097028732E+01   -0.29513E-01   -0.11841E+00   384   0.758E+00    0.125E+00
RMM:   2    -0.649828353009E+01   -0.17313E-01   -0.57969E-02   384   0.195E+00    0.172E+00
RMM:   3    -0.651965536811E+01   -0.21372E-01   -0.76434E-03   384   0.625E-01    0.183E+00
RMM:   4    -0.649675664804E+01    0.22899E-01   -0.24515E-03   360   0.400E-01    0.146E+00
RMM:   5    -0.647546331118E+01    0.21293E-01   -0.11350E-02   384   0.775E-01    0.807E-01
RMM:   6    -0.647697383142E+01   -0.15105E-02   -0.12744E-02   384   0.774E-01    0.117E+00
RMM:   7    -0.647250459298E+01    0.44692E-02   -0.63476E-03   368   0.594E-01    0.880E-01
RMM:   8    -0.647486859446E+01   -0.23640E-02   -0.46174E-03   344   0.464E-01    0.966E-01
RMM:   9    -0.647357797325E+01    0.12906E-02   -0.25693E-04   248   0.114E-01    0.848E-01
RMM:  10    -0.647307796655E+01    0.50001E-03   -0.67291E-03   368   0.560E-01    0.463E-01
RMM:  11    -0.647437327559E+01   -0.12953E-02   -0.35199E-03   352   0.385E-01    0.479E-01
RMM:  12    -0.647520328286E+01   -0.83001E-03   -0.11171E-03   312   0.206E-01    0.464E-01
RMM:  13    -0.647574178311E+01   -0.53850E-03   -0.18463E-04   234   0.840E-02    0.495E-01
RMM:  14    -0.647611945795E+01   -0.37767E-03   -0.89762E-05   223   0.723E-02    0.480E-01
RMM:  15    -0.647629037595E+01   -0.17092E-03   -0.18401E-04   230   0.103E-01
   3 F= -.64762904E+01 E0= -.64576761E+01  d E =-.238946E-01  mag=     2.9992
       N       E                     dE             d eps       ncg     rms          rms(c)
DAV:   1    -0.647973539987E+01   -0.36159E-02   -0.20228E-01   384   0.315E+00    0.682E-01
RMM:   2    -0.649161941185E+01   -0.11884E-01   -0.13028E-02   384   0.935E-01    0.123E+00
RMM:   3    -0.648743857689E+01    0.41808E-02   -0.16925E-03   296   0.281E-01    0.911E-01
RMM:   4    -0.648177352157E+01    0.56651E-02   -0.21840E-03   360   0.353E-01    0.650E-01
RMM:   5    -0.648104717526E+01    0.72635E-03   -0.83263E-04   276   0.190E-01    0.679E-01
RMM:   6    -0.648047794057E+01    0.56923E-03   -0.48155E-03   368   0.510E-01    0.423E-01
RMM:   7    -0.648242177508E+01   -0.19438E-02   -0.13151E-03   320   0.259E-01    0.544E-01
RMM:   8    -0.648271006767E+01   -0.28829E-03   -0.51142E-04   264   0.157E-01    0.507E-01
RMM:   9    -0.648235560577E+01    0.35446E-03   -0.64643E-05   216   0.636E-02    0.478E-01
RMM:  10    -0.648314240145E+01   -0.78680E-03   -0.16177E-03   336   0.281E-01    0.443E-01
RMM:  11    -0.648229453207E+01    0.84787E-03   -0.12680E-04   232   0.940E-02    0.426E-01
RMM:  12    -0.647907864873E+01    0.32159E-02   -0.40513E-03   368   0.515E-01    0.484E-01
RMM:  13    -0.647755362175E+01    0.15250E-02   -0.20130E-03   352   0.336E-01    0.509E-01
RMM:  14    -0.647775022409E+01   -0.19660E-03   -0.14355E-04   232   0.968E-02
   4 F= -.64777502E+01 E0= -.64588012E+01  d E =-.253545E-01  mag=     2.9996
       N       E                     dE             d eps       ncg     rms          rms(c)
DAV:   1    -0.647767167322E+01   -0.11805E-03   -0.29564E-03   460   0.374E-01    0.533E-01
RMM:   2    -0.649950482228E+01   -0.21833E-01   -0.54626E-03   368   0.579E-01    0.144E+00
RMM:   3    -0.648460700634E+01    0.14898E-01   -0.72241E-03   360   0.685E-01    0.486E-01
RMM:   4    -0.647860702448E+01    0.60000E-02   -0.41601E-03   272   0.370E-01    0.617E-01
RMM:   5    -0.647994086163E+01   -0.13338E-02   -0.77561E-04   320   0.209E-01    0.649E-01
RMM:   6    -0.649775124719E+01   -0.17810E-01   -0.40713E-03   368   0.492E-01    0.119E+00
RMM:   7    -0.649580012671E+01    0.19511E-02   -0.20840E-03   296   0.267E-01    0.972E-01
RMM:   8    -0.649539277333E+01    0.40735E-03   -0.12803E-04   224   0.844E-02    0.102E+00
RMM:   9    -0.649552079863E+01   -0.12803E-03   -0.25862E-05   160   0.337E-02
   5 F= -.64955208E+01 E0= -.64832693E+01  d E =-.431250E-01  mag=     2.9998
       N       E                     dE             d eps       ncg     rms          rms(c)
DAV:   1    -0.649552607040E+01   -0.13330E-03   -0.17995E-04   268   0.876E-02    0.101E+00
RMM:   2    -0.656667949471E+01   -0.71153E-01   -0.21123E-02   368   0.114E+00    0.144E+00
RMM:   3    -0.654422931037E+01    0.22450E-01   -0.42395E-03   368   0.487E-01    0.155E+00
RMM:   4    -0.654259513471E+01    0.16342E-02   -0.12086E-02   384   0.842E-01    0.155E+00
RMM:   5    -0.650465711717E+01    0.37938E-01   -0.92353E-03   368   0.817E-01    0.100E+00
RMM:   6    -0.650142299056E+01    0.32341E-02   -0.26893E-03   328   0.353E-01    0.116E+00
RMM:   7    -0.650571372566E+01   -0.42907E-02   -0.20821E-03   344   0.355E-01    0.127E+00
RMM:   8    -0.650506558557E+01    0.64814E-03   -0.30855E-04   256   0.141E-01    0.122E+00
RMM:   9    -0.650296057161E+01    0.21050E-02   -0.30682E-04   254   0.138E-01    0.116E+00
RMM:  10    -0.649886108381E+01    0.40995E-02   -0.70765E-03   368   0.654E-01    0.909E-01
RMM:  11    -0.649772186502E+01    0.11392E-02   -0.10337E-03   310   0.227E-01    0.938E-01
RMM:  12    -0.649920085125E+01   -0.14790E-02   -0.17774E-04   232   0.110E-01    0.102E+00
RMM:  13    -0.649913752223E+01    0.63329E-04   -0.39162E-05   172   0.502E-02
   6 F= -.64991375E+01 E0= -.64844072E+01  d E =-.467418E-01  mag=     2.9998
       N       E                     dE             d eps       ncg     rms          rms(c)
DAV:   1    -0.653459305284E+01   -0.35392E-01   -0.17577E-01   384   0.132E+00    0.153E+00
RMM:   2    -0.658957521424E+01   -0.54982E-01   -0.52727E-02   376   0.177E+00    0.100E+00
RMM:   3    -0.659477617082E+01   -0.52010E-02   -0.51725E-03   368   0.542E-01    0.604E-01
RMM:   4    -0.659466363875E+01    0.11253E-03   -0.34081E-03   368   0.426E-01    0.324E-01
RMM:   5    -0.659518635556E+01   -0.52272E-03   -0.11731E-03   328   0.237E-01    0.234E-01
RMM:   6    -0.659638913063E+01   -0.12028E-02   -0.36996E-04   288   0.134E-01    0.243E-01
RMM:   7    -0.659637685939E+01    0.12271E-04   -0.22298E-04   248   0.101E-01
   7 F= -.65963769E+01 E0= -.66066067E+01  d E =-.143981E+00  mag=     2.9979
       N       E                     dE             d eps       ncg     rms          rms(c)
DAV:   1    -0.659609016230E+01    0.29897E-03   -0.10524E-03   392   0.266E-01    0.912E-02
RMM:   2    -0.659617662237E+01   -0.86460E-04   -0.10800E-04   240   0.849E-02
   8 F= -.65961766E+01 E0= -.66060739E+01  d E =-.143781E+00  mag=     2.9976
       N       E                     dE             d eps       ncg     rms          rms(c)
DAV:   1    -0.659629998068E+01   -0.20982E-03   -0.41035E-04   280   0.698E-02    0.769E-02
RMM:   2    -0.659644411463E+01   -0.14413E-03   -0.89516E-05   224   0.678E-02
   9 F= -.65964441E+01 E0= -.66063379E+01  d E =-.144048E+00  mag=     2.9975
       N       E                     dE             d eps       ncg     rms          rms(c)
DAV:   1    -0.659638387379E+01   -0.83893E-04   -0.30460E-04   256   0.701E-02    0.949E-02
RMM:   2    -0.659647618072E+01   -0.92307E-04   -0.10832E-04   216   0.730E-02
  10 F= -.65964762E+01 E0= -.66063683E+01  d E =-.144080E+00  mag=     2.9974
       N       E                     dE             d eps       ncg     rms          rms(c)
DAV:   1    -0.659645836361E+01   -0.74490E-04   -0.71964E-04   256   0.114E-01    0.123E-01
RMM:   2    -0.659645679917E+01    0.15644E-05   -0.18546E-04   240   0.925E-02
  11 F= -.65964568E+01 E0= -.66062733E+01  d E =-.144061E+00  mag=     2.9973
       N       E                     dE             d eps       ncg     rms          rms(c)
DAV:   1    -0.659646588422E+01   -0.75206E-05   -0.49931E-05   312   0.385E-02    0.131E-01
RMM:   2    -0.659633624318E+01    0.12964E-03   -0.18934E-04   242   0.976E-02
  12 F= -.65963362E+01 E0= -.66063019E+01  d E =-.143940E+00  mag=     2.9972
       N       E                     dE             d eps       ncg     rms          rms(c)
DAV:   1    -0.659642323434E+01    0.42650E-04   -0.11334E-03   400   0.163E-01    0.839E-02
RMM:   2    -0.659659133144E+01   -0.16810E-03   -0.67013E-05   234   0.659E-02
  13 F= -.65965913E+01 E0= -.66071861E+01  d E =-.144196E+00  mag=     2.9973
       N       E                     dE             d eps       ncg     rms          rms(c)
DAV:   1    -0.659663557914E+01   -0.21234E-03   -0.12392E-04   272   0.629E-02    0.707E-02
RMM:   2    -0.659664032470E+01   -0.47456E-05   -0.51020E-05   208   0.511E-02
  14 F= -.65966403E+01 E0= -.66072050E+01  d E =-.144245E+00  mag=     2.9975
       N       E                     dE             d eps       ncg     rms          rms(c)
DAV:   1    -0.659666360636E+01   -0.28027E-04   -0.60465E-04   272   0.113E-01    0.520E-02
RMM:   2    -0.659676886294E+01   -0.10526E-03   -0.50577E-05   220   0.563E-02
  15 F= -.65967689E+01 E0= -.66071569E+01  d E =-.144373E+00  mag=     2.9976
       N       E                     dE             d eps       ncg     rms          rms(c)
DAV:   1    -0.659674173037E+01   -0.78124E-04   -0.82082E-05   240   0.328E-02    0.699E-02
RMM:   2    -0.659681954871E+01   -0.77818E-04   -0.65730E-05   212   0.585E-02
  16 F= -.65968195E+01 E0= -.66072178E+01  d E =-.144424E+00  mag=     2.9976
       N       E                     dE             d eps       ncg     rms          rms(c)
DAV:   1    -0.659677150171E+01   -0.29771E-04   -0.74640E-04   256   0.103E-01    0.889E-02
RMM:   2    -0.659684897287E+01   -0.77471E-04   -0.99344E-05   216   0.705E-02
  17 F= -.65968490E+01 E0= -.66071580E+01  d E =-.144453E+00  mag=     2.9975
       N       E                     dE             d eps       ncg     rms          rms(c)
DAV:   1    -0.659683603845E+01   -0.64537E-04   -0.91643E-04   320   0.127E-01    0.122E-01
RMM:   2    -0.659686399621E+01   -0.27958E-04   -0.20459E-04   248   0.980E-02
  18 F= -.65968640E+01 E0= -.66070631E+01  d E =-.144468E+00  mag=     2.9975
       N       E                     dE             d eps       ncg     rms          rms(c)
DAV:   1    -0.659438513181E+01    0.24509E-02   -0.75243E-01   384   0.604E+00    0.937E-01
RMM:   2    -0.658869315559E+01    0.56920E-02   -0.28439E-02   384   0.133E+00    0.525E-01
RMM:   3    -0.658810947433E+01    0.58368E-03   -0.33177E-03   384   0.417E-01    0.328E-01
RMM:   4    -0.658858172947E+01   -0.47226E-03   -0.99050E-04   360   0.215E-01    0.175E-01
RMM:   5    -0.658893898707E+01   -0.35726E-03   -0.33720E-04   272   0.133E-01    0.981E-02
RMM:   6    -0.658896042363E+01   -0.21437E-04   -0.96658E-05   240   0.768E-02
  19 F= -.65889604E+01 E0= -.65992888E+01  d E =-.136565E+00  mag=     2.9984
       N       E                     dE             d eps       ncg     rms          rms(c)
DAV:   1    -0.658897729066E+01   -0.38304E-04   -0.30654E-04   320   0.110E-01    0.612E-02
RMM:   2    -0.658904128385E+01   -0.63993E-04   -0.41645E-05   230   0.509E-02
  20 F= -.65890413E+01 E0= -.65997304E+01  d E =-.136646E+00  mag=     2.9988
