   10   10  800    2
  0.3375000E+03  0.1500000E-08  0.1500000E-08  0.1500000E-08  0.5000000E-15
  1.000000000000000E-004
  CAR 
 unknown system                          
     19      1     20
 
  0.0000000E+00  0.0000000E+00  0.0000000E+00  0.1000000E+01
    1      -19.233919    -18.835244
    2      -16.876636    -16.820635
    3      -13.799992    -13.324758
    4      -10.933639    -10.829028
    5      -10.304488     -9.924628
    6       -9.820779     -9.689694
    7       -9.152573     -9.026365
    8       -8.437060     -8.363774
    9       -8.220852     -8.100635
   10       -4.010133     -1.891365
   11       -0.490679     -0.395185
   12        0.139712      0.210509
   13        0.147751      0.249026
   14        0.296337      0.332282
   15        0.318350      0.431604
   16        0.533453      0.566673
   17        0.587597      0.628460
   18        0.965252      0.998821
   19        0.975438      1.004463
   20        1.004639      1.061512
