    4    4  800    2
  0.3496991E+03  0.8352722E-09  0.8338707E-09  0.2008562E-08  0.5000000E-15
  1.000000000000000E-004
  CAR 
 unknown system                          
     29      8     20
 
  0.1250000E+00  0.1250000E+00  0.4336809E-18  0.1250000E+00
    1      -19.960858    -19.927885
    2      -19.785632    -19.751089
    3      -19.781713    -19.747088
    4       -9.411067     -9.375111
    5       -9.396273     -9.288438
    6       -9.391595     -9.283866
    7       -8.394924     -8.216076
    8       -8.379269     -8.198944
    9       -7.775115     -7.657214
   10       -7.595373     -7.485917
   11       -7.586697     -7.480113
   12       -7.086074     -7.072764
   13       -5.288914     -4.869889
   14       -5.281941     -4.761699
   15       -5.194199     -4.756702
   16       -4.433180     -4.196085
   17       -4.412479     -4.174198
   18       -1.050626     -0.954008
   19        0.090260      0.168483
   20        0.662171      0.671734
 
  0.3750000E+00  0.1250000E+00 -0.2168404E-18  0.1250000E+00
    1      -19.960452    -19.927477
    2      -19.786277    -19.751738
    3      -19.781512    -19.746887
    4       -9.409289     -9.367420
    5       -9.400419     -9.298178
    6       -9.389819     -9.282836
    7       -8.388682     -8.207713
    8       -8.381514     -8.201247
    9       -7.771518     -7.653570
   10       -7.590367     -7.483490
   11       -7.589361     -7.482470
   12       -7.094006     -7.080722
   13       -5.285896     -4.868504
   14       -5.282600     -4.760951
   15       -5.192961     -4.755460
   16       -4.446136     -4.208124
   17       -4.429016     -4.191226
   18       -0.938429     -0.825215
   19        0.110541      0.151616
   20        0.404267      0.444063
 
 -0.3750000E+00  0.1250000E+00  0.0000000E+00  0.1250000E+00
    1      -19.960452    -19.927477
    2      -19.786278    -19.751738
    3      -19.781512    -19.746886
    4       -9.409271     -9.367418
    5       -9.400453     -9.298192
    6       -9.389804     -9.282825
    7       -8.388696     -8.207731
    8       -8.381499     -8.201228
    9       -7.771520     -7.653571
   10       -7.590357     -7.483485
   11       -7.589369     -7.482474
   12       -7.094008     -7.080724
   13       -5.285920     -4.868504
   14       -5.282575     -4.760946
   15       -5.192961     -4.755462
   16       -4.446154     -4.208161
   17       -4.429002     -4.191195
   18       -0.938374     -0.825151
   19        0.110310      0.151344
   20        0.404497      0.444353
 
 -0.1250000E+00  0.1250000E+00  0.1301043E-17  0.1250000E+00
    1      -19.960858    -19.927885
    2      -19.785633    -19.751090
    3      -19.781712    -19.747088
    4       -9.411056     -9.375110
    5       -9.396317     -9.288474
    6       -9.391562     -9.283832
    7       -8.394931     -8.216082
    8       -8.379263     -8.198937
    9       -7.775116     -7.657215
   10       -7.595370     -7.485915
   11       -7.586698     -7.480113
   12       -7.086076     -7.072765
   13       -5.288926     -4.869889
   14       -5.281929     -4.761693
   15       -5.194198     -4.756705
   16       -4.433189     -4.196107
   17       -4.412474     -4.174182
   18       -1.050582     -0.953960
   19        0.090166      0.168373
   20        0.661790      0.671319
 
  0.1250000E+00  0.3750000E+00  0.1734723E-17  0.1250000E+00
    1      -19.960757    -19.927783
    2      -19.785633    -19.751090
    3      -19.781820    -19.747196
    4       -9.410107     -9.374080
    5       -9.396897     -9.289524
    6       -9.393758     -9.285790
    7       -8.392002     -8.212057
    8       -8.380349     -8.200490
    9       -7.774046     -7.656098
   10       -7.594917     -7.486611
   11       -7.587793     -7.480795
   12       -7.082634     -7.069314
   13       -5.287481     -4.869279
   14       -5.283156     -4.762066
   15       -5.193637     -4.758347
   16       -4.445637     -4.206398
   17       -4.412199     -4.173736
   18       -0.949837     -0.836210
   19        0.086978      0.126357
   20        0.421428      0.463075
 
  0.3750000E+00  0.3750000E+00  0.8673617E-18  0.1250000E+00
    1      -19.960348    -19.927372
    2      -19.786275    -19.751736
    3      -19.781618    -19.746993
    4       -9.408890     -9.366431
    5       -9.400506     -9.298036
    6       -9.391918     -9.285906
    7       -8.385993     -8.204461
    8       -8.382403     -8.202059
    9       -7.770456     -7.652481
   10       -7.590719     -7.484184
   11       -7.589657     -7.483144
   12       -7.090557     -7.077259
   13       -5.287111     -4.867905
   14       -5.281152     -4.762641
   15       -5.192412     -4.755770
   16       -4.446017     -4.208269
   17       -4.440787     -4.200360
   18       -0.852998     -0.723057
   19        0.199416      0.232401
   20        0.404209      0.424736
 
 -0.3750000E+00  0.3750000E+00  0.1734723E-17  0.1250000E+00
    1      -19.960348    -19.927373
    2      -19.786276    -19.751737
    3      -19.781618    -19.746993
    4       -9.408867     -9.366430
    5       -9.400553     -9.298054
    6       -9.391897     -9.285892
    7       -8.386022     -8.204511
    8       -8.382374     -8.202009
    9       -7.770458     -7.652483
   10       -7.590711     -7.484180
   11       -7.589665     -7.483149
   12       -7.090558     -7.077260
   13       -5.287125     -4.867905
   14       -5.281139     -4.762638
   15       -5.192412     -4.755772
   16       -4.446082     -4.208351
   17       -4.440730     -4.200286
   18       -0.852927     -0.722969
   19        0.198936      0.231682
   20        0.404316      0.425212
 
 -0.1250000E+00  0.3750000E+00  0.3469447E-17  0.1250000E+00
    1      -19.960757    -19.927783
    2      -19.785634    -19.751091
    3      -19.781820    -19.747196
    4       -9.410092     -9.374078
    5       -9.396972     -9.289569
    6       -9.393696     -9.285746
    7       -8.392010     -8.212066
    8       -8.380339     -8.200479
    9       -7.774048     -7.656099
   10       -7.594914     -7.486609
   11       -7.587794     -7.480795
   12       -7.082634     -7.069314
   13       -5.287500     -4.869279
   14       -5.283136     -4.762058
   15       -5.193637     -4.758352
   16       -4.445645     -4.206416
   17       -4.412195     -4.173724
   18       -0.949780     -0.836144
   19        0.086801      0.126146
   20        0.421459      0.463132
