       N       E                     dE             d eps       ncg     rms          rms(c)
DAV:   1     0.228743211566E+03    0.22874E+03   -0.66585E+03   704   0.845E+02
DAV:   2     0.567330948100E+02   -0.17201E+03   -0.16514E+03  1064   0.135E+02
DAV:   3    -0.854106050128E+01   -0.65274E+02   -0.63582E+02   868   0.893E+01
DAV:   4    -0.120276448002E+02   -0.34866E+01   -0.33593E+01   652   0.262E+01
DAV:   5    -0.120950353972E+02   -0.67391E-01   -0.67210E-01   836   0.356E+00    0.130E+01
RMM:   6    -0.769001734620E+01    0.44050E+01   -0.12468E+01   640   0.167E+01    0.111E+01
RMM:   7    -0.757707107609E+01    0.11295E+00   -0.34594E+00   640   0.906E+00    0.631E+00
RMM:   8    -0.769563569060E+01   -0.11856E+00   -0.82010E-01   640   0.430E+00    0.185E+00
RMM:   9    -0.867189023209E+01   -0.97625E+00   -0.26909E-01   640   0.231E+00    0.108E+00
RMM:  10    -0.930086855268E+01   -0.62898E+00   -0.12397E-01   640   0.151E+00    0.711E-01
RMM:  11    -0.995808963197E+01   -0.65722E+00   -0.15821E-01   640   0.169E+00    0.471E-01
RMM:  12    -0.102749057685E+02   -0.31682E+00   -0.71463E-02   640   0.101E+00    0.363E-01
RMM:  13    -0.105295374219E+02   -0.25463E+00   -0.57103E-02   640   0.936E-01    0.319E-01
RMM:  14    -0.106494919473E+02   -0.11995E+00   -0.21812E-02   616   0.547E-01    0.255E-01
RMM:  15    -0.108641767879E+02   -0.21468E+00   -0.46203E-02   640   0.867E-01    0.189E-01
RMM:  16    -0.109962299330E+02   -0.13205E+00   -0.31413E-02   616   0.617E-01    0.110E-01
RMM:  17    -0.111333352377E+02   -0.13711E+00   -0.23148E-02   602   0.457E-01    0.124E-01
RMM:  18    -0.111357982968E+02   -0.24631E-02   -0.16742E-03   517   0.119E-01    0.117E-01
RMM:  19    -0.111441901867E+02   -0.83919E-02   -0.49369E-04   436   0.110E-01    0.765E-02
RMM:  20    -0.111546378867E+02   -0.10448E-01   -0.11617E-03   513   0.136E-01    0.359E-02
RMM:  21    -0.111590788023E+02   -0.44409E-02   -0.68732E-04   462   0.990E-02    0.234E-02
RMM:  22    -0.111619158114E+02   -0.28370E-02   -0.66052E-04   468   0.927E-02    0.159E-02
RMM:  23    -0.111624478068E+02   -0.53200E-03   -0.14345E-04   345   0.463E-02    0.204E-02
RMM:  24    -0.111624668327E+02   -0.19026E-04   -0.30531E-05   230   0.252E-02
   1 F= -.11162467E+02 E0= -.11147979E+02  d E =-.111625E+02  mag=     1.0072
       N       E                     dE             d eps       ncg     rms          rms(c)
DAV:   1    -0.125255307291E+02   -0.13631E+01   -0.14001E+02   640   0.638E+01    0.625E+00
RMM:   2    -0.123821378087E+02    0.14339E+00   -0.49407E+00   640   0.131E+01    0.426E+00
RMM:   3    -0.121856836034E+02    0.19645E+00   -0.65229E-01   640   0.426E+00    0.227E+00
RMM:   4    -0.120792717079E+02    0.10641E+00   -0.16921E-01   640   0.216E+00    0.139E+00
RMM:   5    -0.120897478038E+02   -0.10476E-01   -0.41472E-02   640   0.113E+00    0.144E+00
RMM:   6    -0.120877579176E+02    0.19899E-02   -0.43331E-03   624   0.332E-01    0.123E+00
RMM:   7    -0.120821165917E+02    0.56413E-02   -0.13340E-02   640   0.641E-01    0.493E-01
RMM:   8    -0.120838238658E+02   -0.17073E-02   -0.56600E-03   640   0.432E-01    0.235E-01
RMM:   9    -0.120872518261E+02   -0.34280E-02   -0.10260E-03   505   0.170E-01    0.141E-01
RMM:  10    -0.120920914473E+02   -0.48396E-02   -0.13186E-03   528   0.173E-01    0.875E-02
RMM:  11    -0.120935683942E+02   -0.14769E-02   -0.33562E-04   416   0.855E-02    0.638E-02
RMM:  12    -0.120954829675E+02   -0.19146E-02   -0.38527E-04   416   0.834E-02    0.416E-02
RMM:  13    -0.120977386888E+02   -0.22557E-02   -0.63204E-04   426   0.968E-02    0.361E-02
RMM:  14    -0.120985961835E+02   -0.85749E-03   -0.24232E-04   376   0.527E-02    0.365E-02
RMM:  15    -0.120989859094E+02   -0.38973E-03   -0.77916E-05   324   0.355E-02    0.230E-02
RMM:  16    -0.120995864450E+02   -0.60054E-03   -0.17745E-04   376   0.466E-02    0.203E-02
RMM:  17    -0.120997818114E+02   -0.19537E-03   -0.60296E-05   252   0.292E-02
   2 F= -.12099782E+02 E0= -.12082687E+02  d E =-.937315E+00  mag=     1.0132
       N       E                     dE             d eps       ncg     rms          rms(c)
DAV:   1    -0.131013500714E+02   -0.10018E+01   -0.21258E+02   640   0.783E+01    0.722E+00
RMM:   2    -0.127501536129E+02    0.35120E+00   -0.70970E+00   640   0.155E+01    0.419E+00
RMM:   3    -0.124676283165E+02    0.28253E+00   -0.64832E-01   640   0.417E+00    0.234E+00
RMM:   4    -0.123968757682E+02    0.70753E-01   -0.25375E-01   640   0.260E+00    0.220E+00
RMM:   5    -0.123936006744E+02    0.32751E-02   -0.46589E-02   640   0.116E+00    0.185E+00
RMM:   6    -0.123745284132E+02    0.19072E-01   -0.23136E-02   640   0.823E-01    0.106E+00
RMM:   7    -0.123710436206E+02    0.34848E-02   -0.17349E-02   640   0.721E-01    0.685E-01
RMM:   8    -0.123710777371E+02   -0.34116E-04   -0.95617E-03   640   0.557E-01    0.270E-01
RMM:   9    -0.123748064546E+02   -0.37287E-02   -0.27800E-03   586   0.275E-01    0.142E-01
RMM:  10    -0.123778045015E+02   -0.29980E-02   -0.10796E-03   504   0.166E-01    0.829E-02
RMM:  11    -0.123794787097E+02   -0.16742E-02   -0.51909E-04   432   0.107E-01    0.624E-02
RMM:  12    -0.123812150159E+02   -0.17363E-02   -0.47782E-04   426   0.913E-02    0.446E-02
RMM:  13    -0.123832650710E+02   -0.20501E-02   -0.72261E-04   456   0.980E-02    0.400E-02
RMM:  14    -0.123839901478E+02   -0.72508E-03   -0.25510E-04   368   0.556E-02    0.296E-02
RMM:  15    -0.123846640739E+02   -0.67393E-03   -0.24359E-04   383   0.558E-02    0.176E-02
RMM:  16    -0.123849040914E+02   -0.24002E-03   -0.96582E-05   300   0.338E-02    0.150E-02
RMM:  17    -0.123850379415E+02   -0.13385E-03   -0.60802E-05   268   0.300E-02
   3 F= -.12385038E+02 E0= -.12369398E+02  d E =-.122257E+01  mag=     1.0159
       N       E                     dE             d eps       ncg     rms          rms(c)
DAV:   1    -0.134164088143E+02   -0.10315E+01   -0.93641E+01   664   0.546E+01    0.727E+00
RMM:   2    -0.129485925931E+02    0.46782E+00   -0.32921E+00   640   0.111E+01    0.410E+00
RMM:   3    -0.126975397963E+02    0.25105E+00   -0.45199E-01   640   0.338E+00    0.228E+00
RMM:   4    -0.126779796406E+02    0.19560E-01   -0.25231E-01   640   0.265E+00    0.214E+00
RMM:   5    -0.126668692590E+02    0.11110E-01   -0.43970E-02   640   0.112E+00    0.170E+00
RMM:   6    -0.126559881865E+02    0.10881E-01   -0.87956E-03   640   0.505E-01    0.125E+00
RMM:   7    -0.126481002218E+02    0.78880E-02   -0.12095E-02   640   0.603E-01    0.660E-01
RMM:   8    -0.126486493141E+02   -0.54909E-03   -0.36541E-03   632   0.374E-01    0.418E-01
RMM:   9    -0.126493102139E+02   -0.66090E-03   -0.22204E-03   576   0.274E-01    0.214E-01
RMM:  10    -0.126507140496E+02   -0.14038E-02   -0.71561E-04   484   0.155E-01    0.125E-01
RMM:  11    -0.126518172902E+02   -0.11032E-02   -0.27750E-04   378   0.954E-02    0.750E-02
RMM:  12    -0.126526373260E+02   -0.82004E-03   -0.13583E-04   368   0.637E-02    0.582E-02
RMM:  13    -0.126533125888E+02   -0.67526E-03   -0.88643E-05   360   0.473E-02    0.458E-02
RMM:  14    -0.126544417219E+02   -0.11291E-02   -0.14599E-04   376   0.568E-02    0.209E-02
RMM:  15    -0.126555607975E+02   -0.11191E-02   -0.15495E-04   336   0.493E-02    0.208E-02
RMM:  16    -0.126561089061E+02   -0.54811E-03   -0.78049E-05   320   0.335E-02    0.147E-02
RMM:  17    -0.126565055663E+02   -0.39666E-03   -0.61266E-05   286   0.304E-02    0.140E-02
RMM:  18    -0.126566256114E+02   -0.12005E-03   -0.21422E-05   222   0.205E-02
   4 F= -.12656626E+02 E0= -.12635606E+02  d E =-.271588E+00  mag=     0.9813
       N       E                     dE             d eps       ncg     rms          rms(c)
DAV:   1    -0.127488289076E+02   -0.92323E-01   -0.65635E+00   640   0.141E+01    0.231E+00
RMM:   2    -0.127036297208E+02    0.45199E-01   -0.23587E-01   640   0.295E+00    0.116E+00
RMM:   3    -0.126829313982E+02    0.20698E-01   -0.33423E-02   640   0.913E-01    0.621E-01
RMM:   4    -0.126861929231E+02   -0.32615E-02   -0.13674E-02   640   0.645E-01    0.761E-01
RMM:   5    -0.126865791749E+02   -0.38625E-03   -0.38487E-03   592   0.320E-01    0.606E-01
RMM:   6    -0.126874242348E+02   -0.84506E-03   -0.17868E-03   550   0.229E-01    0.454E-01
RMM:   7    -0.126880256930E+02   -0.60146E-03   -0.19337E-03   620   0.243E-01    0.365E-01
RMM:   8    -0.126879343021E+02    0.91391E-04   -0.76856E-04   452   0.153E-01
   5 F= -.12687934E+02 E0= -.12666595E+02  d E =-.302896E+00  mag=     0.9954
       N       E                     dE             d eps       ncg     rms          rms(c)
DAV:   1    -0.127920839435E+02   -0.10406E+00   -0.84811E+00   656   0.148E+01    0.208E+00
RMM:   2    -0.127398737835E+02    0.52210E-01   -0.28711E-01   640   0.325E+00    0.109E+00
RMM:   3    -0.127226926033E+02    0.17181E-01   -0.43483E-02   640   0.101E+00    0.708E-01
RMM:   4    -0.127261680260E+02   -0.34754E-02   -0.14824E-02   640   0.619E-01    0.611E-01
RMM:   5    -0.127287862151E+02   -0.26182E-02   -0.40099E-03   636   0.358E-01    0.587E-01
RMM:   6    -0.127278353864E+02    0.95083E-03   -0.15114E-03   552   0.210E-01    0.371E-01
RMM:   7    -0.127284956623E+02   -0.66028E-03   -0.15916E-03   596   0.213E-01    0.233E-01
RMM:   8    -0.127291800838E+02   -0.68442E-03   -0.41252E-04   416   0.126E-01    0.134E-01
RMM:   9    -0.127298368700E+02   -0.65679E-03   -0.24511E-04   384   0.872E-02    0.572E-02
RMM:  10    -0.127299737111E+02   -0.13684E-03   -0.75097E-05   368   0.508E-02
   6 F= -.12729974E+02 E0= -.12710935E+02  d E =-.420394E-01  mag=     1.0017
       N       E                     dE             d eps       ncg     rms          rms(c)
DAV:   1    -0.127319793435E+02   -0.21425E-02   -0.19084E-01   664   0.224E+00    0.307E-01
RMM:   2    -0.127305930482E+02    0.13863E-02   -0.60475E-03   640   0.479E-01    0.165E-01
RMM:   3    -0.127301400415E+02    0.45301E-03   -0.93377E-04   534   0.148E-01    0.119E-01
RMM:   4    -0.127303995365E+02   -0.25950E-03   -0.32864E-04   426   0.101E-01    0.997E-02
RMM:   5    -0.127305409389E+02   -0.14140E-03   -0.11319E-04   364   0.671E-02
   7 F= -.12730541E+02 E0= -.12711916E+02  d E =-.426066E-01  mag=     1.0021
       N       E                     dE             d eps       ncg     rms          rms(c)
DAV:   1    -0.127797774437E+02   -0.49378E-01   -0.32939E+00   640   0.932E+00    0.125E+00
RMM:   2    -0.127537289921E+02    0.26048E-01   -0.11273E-01   640   0.203E+00    0.609E-01
RMM:   3    -0.127480112834E+02    0.57177E-02   -0.20975E-02   640   0.669E-01    0.478E-01
RMM:   4    -0.127477657439E+02    0.24554E-03   -0.53004E-03   632   0.368E-01    0.313E-01
RMM:   5    -0.127482142602E+02   -0.44852E-03   -0.94595E-04   488   0.180E-01    0.246E-01
RMM:   6    -0.127482116196E+02    0.26407E-05   -0.90027E-04   498   0.164E-01
   8 F= -.12748212E+02 E0= -.12730596E+02  d E =-.176707E-01  mag=     1.0035
       N       E                     dE             d eps       ncg     rms          rms(c)
DAV:   1    -0.127571937113E+02   -0.89795E-02   -0.79718E-01   656   0.458E+00    0.669E-01
RMM:   2    -0.127504552898E+02    0.67384E-02   -0.27776E-02   640   0.102E+00    0.413E-01
RMM:   3    -0.127478331099E+02    0.26222E-02   -0.56268E-03   640   0.361E-01    0.278E-01
RMM:   4    -0.127486282641E+02   -0.79515E-03   -0.17996E-03   564   0.219E-01    0.256E-01
RMM:   5    -0.127490975688E+02   -0.46930E-03   -0.60474E-04   454   0.148E-01    0.229E-01
RMM:   6    -0.127489328810E+02    0.16469E-03   -0.40901E-04   392   0.114E-01
   9 F= -.12748933E+02 E0= -.12731856E+02  d E =-.183919E-01  mag=     1.0040
       N       E                     dE             d eps       ncg     rms          rms(c)
DAV:   1    -0.127810062866E+02   -0.31909E-01   -0.30659E+00   640   0.915E+00    0.113E+00
RMM:   2    -0.127671045127E+02    0.13902E-01   -0.99125E-02   640   0.195E+00    0.564E-01
RMM:   3    -0.127624739748E+02    0.46305E-02   -0.89070E-03   640   0.498E-01    0.323E-01
RMM:   4    -0.127620666356E+02    0.40734E-03   -0.41014E-03   640   0.317E-01    0.265E-01
RMM:   5    -0.127619626469E+02    0.10399E-03   -0.94731E-04   496   0.175E-01
  10 F= -.12761963E+02 E0= -.12745017E+02  d E =-.130298E-01  mag=     1.0000
       N       E                     dE             d eps       ncg     rms          rms(c)
DAV:   1    -0.128381176814E+02   -0.76051E-01   -0.12272E+01   640   0.183E+01    0.220E+00
RMM:   2    -0.127859968730E+02    0.52121E-01   -0.40374E-01   640   0.391E+00    0.113E+00
RMM:   3    -0.127661715444E+02    0.19825E-01   -0.40320E-02   640   0.106E+00    0.677E-01
RMM:   4    -0.127602930995E+02    0.58784E-02   -0.18076E-02   640   0.668E-01    0.479E-01
RMM:   5    -0.127588686903E+02    0.14244E-02   -0.50819E-03   640   0.406E-01    0.388E-01
RMM:   6    -0.127591832491E+02   -0.31456E-03   -0.49142E-04   408   0.126E-01    0.339E-01
RMM:   7    -0.127591897180E+02   -0.64688E-05   -0.13052E-03   552   0.197E-01
  11 F= -.12759190E+02 E0= -.12744046E+02  d E =-.102568E-01  mag=     0.9690
       N       E                     dE             d eps       ncg     rms          rms(c)
DAV:   1    -0.127716178127E+02   -0.12435E-01   -0.12697E+00   648   0.587E+00    0.899E-01
RMM:   2    -0.127663326977E+02    0.52851E-02   -0.41558E-02   640   0.129E+00    0.497E-01
RMM:   3    -0.127638841521E+02    0.24485E-02   -0.48245E-03   640   0.353E-01    0.281E-01
RMM:   4    -0.127659725639E+02   -0.20884E-02   -0.27449E-03   594   0.279E-01    0.246E-01
RMM:   5    -0.127663398538E+02   -0.36729E-03   -0.81153E-04   468   0.160E-01    0.194E-01
RMM:   6    -0.127664926524E+02   -0.15280E-03   -0.35593E-04   384   0.992E-02
  12 F= -.12766493E+02 E0= -.12749558E+02  d E =-.175598E-01  mag=     0.9731
       N       E                     dE             d eps       ncg     rms          rms(c)
DAV:   1    -0.127769475573E+02   -0.10608E-01   -0.14517E+00   656   0.628E+00    0.904E-01
RMM:   2    -0.127689902523E+02    0.79573E-02   -0.46256E-02   640   0.136E+00    0.484E-01
RMM:   3    -0.127654511209E+02    0.35391E-02   -0.51283E-03   640   0.367E-01    0.298E-01
RMM:   4    -0.127667283994E+02   -0.12773E-02   -0.26790E-03   608   0.279E-01    0.276E-01
RMM:   5    -0.127670016574E+02   -0.27326E-03   -0.72356E-04   464   0.152E-01    0.233E-01
RMM:   6    -0.127670027338E+02   -0.10764E-05   -0.38717E-04   388   0.108E-01
  13 F= -.12767003E+02 E0= -.12749275E+02  d E =-.180699E-01  mag=     0.9825
       N       E                     dE             d eps       ncg     rms          rms(c)
DAV:   1    -0.127910972586E+02   -0.24096E-01   -0.39102E+00   640   0.102E+01    0.132E+00
RMM:   2    -0.127836695678E+02    0.74277E-02   -0.12142E-01   640   0.219E+00    0.667E-01
RMM:   3    -0.127785410097E+02    0.51286E-02   -0.97980E-03   640   0.532E-01    0.392E-01
RMM:   4    -0.127791679186E+02   -0.62691E-03   -0.50310E-03   640   0.359E-01    0.340E-01
RMM:   5    -0.127793678132E+02   -0.19989E-03   -0.12180E-03   510   0.192E-01
  14 F= -.12779368E+02 E0= -.12763074E+02  d E =-.123651E-01  mag=     0.9770
       N       E                     dE             d eps       ncg     rms          rms(c)
DAV:   1    -0.127791842029E+02   -0.16284E-04   -0.10202E-03   720   0.196E-01    0.209E-01
RMM:   2    -0.127788200073E+02    0.36420E-03   -0.41552E-04   414   0.117E-01    0.134E-01
RMM:   3    -0.127789316678E+02   -0.11166E-03   -0.31175E-04   410   0.988E-02
  15 F= -.12778932E+02 E0= -.12762342E+02  d E =-.119289E-01  mag=     0.9736
       N       E                     dE             d eps       ncg     rms          rms(c)
DAV:   1    -0.127903611036E+02   -0.11541E-01   -0.14252E+00   640   0.580E+00    0.662E-01
RMM:   2    -0.127839988644E+02    0.63622E-02   -0.40089E-02   640   0.124E+00    0.368E-01
RMM:   3    -0.127815858665E+02    0.24130E-02   -0.58429E-03   640   0.367E-01    0.265E-01
RMM:   4    -0.127821370032E+02   -0.55114E-03   -0.17879E-03   548   0.212E-01    0.205E-01
RMM:   5    -0.127825130209E+02   -0.37602E-03   -0.47009E-04   414   0.129E-01    0.183E-01
RMM:   6    -0.127824569068E+02    0.56114E-04   -0.26921E-04   378   0.963E-02
  16 F= -.12782457E+02 E0= -.12767284E+02  d E =-.352524E-02  mag=     0.9679
       N       E                     dE             d eps       ncg     rms          rms(c)
DAV:   1    -0.128119437614E+02   -0.29431E-01   -0.59320E+00   640   0.118E+01    0.126E+00
RMM:   2    -0.127882173877E+02    0.23726E-01   -0.16792E-01   640   0.250E+00    0.649E-01
RMM:   3    -0.127809990401E+02    0.72183E-02   -0.22899E-02   640   0.733E-01    0.472E-01
RMM:   4    -0.127803857134E+02    0.61333E-03   -0.63544E-03   640   0.394E-01    0.325E-01
RMM:   5    -0.127812242636E+02   -0.83855E-03   -0.12132E-03   520   0.203E-01    0.306E-01
RMM:   6    -0.127810379522E+02    0.18631E-03   -0.61115E-04   426   0.141E-01
  17 F= -.12781038E+02 E0= -.12767706E+02  d E =-.210628E-02  mag=     0.9579
       N       E                     dE             d eps       ncg     rms          rms(c)
DAV:   1    -0.127837310650E+02   -0.25068E-02   -0.16691E-01   656   0.200E+00    0.270E-01
RMM:   2    -0.127828597033E+02    0.87136E-03   -0.50896E-03   640   0.440E-01    0.203E-01
RMM:   3    -0.127824497237E+02    0.40998E-03   -0.80848E-04   466   0.150E-01    0.134E-01
RMM:   4    -0.127827327788E+02   -0.28306E-03   -0.37643E-04   424   0.106E-01    0.115E-01
RMM:   5    -0.127829013909E+02   -0.16861E-03   -0.17184E-04   376   0.808E-02
  18 F= -.12782901E+02 E0= -.12769573E+02  d E =-.186344E-02  mag=     0.9534
       N       E                     dE             d eps       ncg     rms          rms(c)
DAV:   1    -0.127907005941E+02   -0.79678E-02   -0.94096E-01   640   0.477E+00    0.519E-01
RMM:   2    -0.127857843129E+02    0.49163E-02   -0.28963E-02   640   0.105E+00    0.268E-01
RMM:   3    -0.127845485629E+02    0.12357E-02   -0.36279E-03   640   0.296E-01    0.198E-01
RMM:   4    -0.127844731045E+02    0.75458E-04   -0.10500E-03   496   0.161E-01
  19 F= -.12784473E+02 E0= -.12772081E+02  d E =-.343515E-02  mag=     0.9465
       N       E                     dE             d eps       ncg     rms          rms(c)
DAV:   1    -0.128085048260E+02   -0.23956E-01   -0.37703E+00   640   0.954E+00    0.102E+00
RMM:   2    -0.127909952450E+02    0.17510E-01   -0.11952E-01   640   0.211E+00    0.524E-01
RMM:   3    -0.127859424729E+02    0.50528E-02   -0.14659E-02   640   0.596E-01    0.363E-01
RMM:   4    -0.127845587939E+02    0.13837E-02   -0.41069E-03   640   0.314E-01    0.219E-01
RMM:   5    -0.127844258265E+02    0.13297E-03   -0.91232E-04   456   0.168E-01
  20 F= -.12784426E+02 E0= -.12772696E+02  d E =-.338787E-02  mag=     0.9281
       N       E                     dE             d eps       ncg     rms          rms(c)
DAV:   1    -0.128650551815E+02   -0.80496E-01   -0.15140E+01   640   0.190E+01    0.203E+00
RMM:   2    -0.128057092547E+02    0.59346E-01   -0.51564E-01   640   0.430E+00    0.107E+00
RMM:   3    -0.127839056457E+02    0.21804E-01   -0.64039E-02   640   0.125E+00    0.671E-01
RMM:   4    -0.127758819455E+02    0.80237E-02   -0.15887E-02   640   0.628E-01    0.385E-01
RMM:   5    -0.127746933260E+02    0.11886E-02   -0.43020E-03   640   0.347E-01    0.253E-01
RMM:   6    -0.127757569552E+02   -0.10636E-02   -0.98147E-04   472   0.175E-01    0.151E-01
RMM:   7    -0.127768669132E+02   -0.11100E-02   -0.41317E-04   392   0.115E-01    0.124E-01
RMM:   8    -0.127773994427E+02   -0.53253E-03   -0.25949E-04   376   0.905E-02    0.689E-02
RMM:   9    -0.127783940845E+02   -0.99464E-03   -0.20147E-04   376   0.725E-02    0.577E-02
RMM:  10    -0.127789367099E+02   -0.54263E-03   -0.11580E-04   368   0.538E-02    0.363E-02
RMM:  11    -0.127792031199E+02   -0.26641E-03   -0.47758E-05   308   0.339E-02    0.185E-02
RMM:  12    -0.127795076108E+02   -0.30449E-03   -0.38369E-05   270   0.289E-02    0.113E-02
RMM:  13    -0.127798797477E+02   -0.37214E-03   -0.89451E-05   338   0.392E-02    0.131E-02
RMM:  14    -0.127799923490E+02   -0.11260E-03   -0.26111E-05   194   0.214E-02
  21 F= -.12779992E+02 E0= -.12769792E+02  d E =0.104560E-02  mag=     0.8814
       N       E                     dE             d eps       ncg     rms          rms(c)
DAV:   1    -0.128350495284E+02   -0.55170E-01   -0.74047E+00   656   0.135E+01    0.180E+00
RMM:   2    -0.127979160821E+02    0.37133E-01   -0.21811E-01   640   0.296E+00    0.122E+00
RMM:   3    -0.127762681438E+02    0.21648E-01   -0.37904E-02   640   0.949E-01    0.770E-01
RMM:   4    -0.127747820095E+02    0.14861E-02   -0.14615E-02   640   0.621E-01    0.483E-01
RMM:   5    -0.127798889798E+02   -0.51070E-02   -0.57937E-03   606   0.450E-01    0.592E-01
RMM:   6    -0.127811371784E+02   -0.12482E-02   -0.13201E-03   476   0.186E-01    0.465E-01
RMM:   7    -0.127840295564E+02   -0.28924E-02   -0.45951E-03   592   0.363E-01    0.244E-01
RMM:   8    -0.127848667690E+02   -0.83721E-03   -0.22033E-03   554   0.234E-01    0.146E-01
RMM:   9    -0.127852648147E+02   -0.39805E-03   -0.47245E-04   407   0.117E-01    0.969E-02
RMM:  10    -0.127854722746E+02   -0.20746E-03   -0.27645E-04   376   0.879E-02    0.655E-02
RMM:  11    -0.127855822998E+02   -0.11003E-03   -0.79266E-05   368   0.524E-02
  22 F= -.12785582E+02 E0= -.12774129E+02  d E =-.454435E-02  mag=     0.9076
       N       E                     dE             d eps       ncg     rms          rms(c)
DAV:   1    -0.127892916885E+02   -0.38194E-02   -0.44870E-01   672   0.331E+00    0.404E-01
RMM:   2    -0.127869660803E+02    0.23256E-02   -0.13819E-02   640   0.733E-01    0.228E-01
RMM:   3    -0.127861127262E+02    0.85335E-03   -0.19588E-03   614   0.211E-01    0.165E-01
RMM:   4    -0.127862298587E+02   -0.11713E-03   -0.68152E-04   448   0.137E-01
  23 F= -.12786230E+02 E0= -.12773245E+02  d E =-.519191E-02  mag=     0.9115
       N       E                     dE             d eps       ncg     rms          rms(c)
DAV:   1    -0.127869958501E+02   -0.88312E-03   -0.72666E-02   688   0.134E+00    0.151E-01
RMM:   2    -0.127864886722E+02    0.50718E-03   -0.23130E-03   624   0.294E-01    0.949E-02
RMM:   3    -0.127863876785E+02    0.10099E-03   -0.27019E-04   370   0.883E-02
  24 F= -.12786388E+02 E0= -.12773814E+02  d E =-.534973E-02  mag=     0.9144
       N       E                     dE             d eps       ncg     rms          rms(c)
DAV:   1    -0.127866528636E+02   -0.16419E-03   -0.25856E-02   672   0.782E-01    0.923E-02
RMM:   2    -0.127864999897E+02    0.15287E-03   -0.68061E-04   458   0.163E-01
  25 F= -.12786500E+02 E0= -.12773925E+02  d E =-.546204E-02  mag=     0.9162
       N       E                     dE             d eps       ncg     rms          rms(c)
DAV:   1    -0.127866110931E+02    0.41771E-04   -0.53673E-03   656   0.374E-01    0.616E-02
RMM:   2    -0.127865916588E+02    0.19434E-04   -0.31679E-04   408   0.105E-01
  26 F= -.12786592E+02 E0= -.12774231E+02  d E =-.555371E-02  mag=     0.9175
       N       E                     dE             d eps       ncg     rms          rms(c)
DAV:   1    -0.127866459828E+02   -0.34890E-04   -0.15413E-03   704   0.215E-01    0.409E-02
RMM:   2    -0.127866708291E+02   -0.24846E-04   -0.92801E-05   352   0.583E-02
  27 F= -.12786671E+02 E0= -.12774431E+02  d E =-.563288E-02  mag=     0.9186
       N       E                     dE             d eps       ncg     rms          rms(c)
DAV:   1    -0.127867182049E+02   -0.72222E-04   -0.38134E-04   600   0.109E-01    0.272E-02
RMM:   2    -0.127867605505E+02   -0.42346E-04   -0.32467E-05   258   0.385E-02
  28 F= -.12786761E+02 E0= -.12774606E+02  d E =-.572260E-02  mag=     0.9194
       N       E                     dE             d eps       ncg     rms          rms(c)
DAV:   1    -0.127898879495E+02   -0.31697E-02   -0.43726E-02   656   0.124E+00    0.228E-01
RMM:   2    -0.127892947264E+02    0.59322E-03   -0.19220E-03   640   0.264E-01    0.118E-01
RMM:   3    -0.127891537022E+02    0.14102E-03   -0.75664E-04   478   0.120E-01
  29 F= -.12789154E+02 E0= -.12776551E+02  d E =-.239315E-02  mag=     0.9181
       N       E                     dE             d eps       ncg     rms          rms(c)
DAV:   1    -0.127977495801E+02   -0.84549E-02   -0.38270E-01   672   0.362E+00    0.665E-01
RMM:   2    -0.127918242035E+02    0.59254E-02   -0.16487E-02   640   0.773E-01    0.359E-01
RMM:   3    -0.127899063213E+02    0.19179E-02   -0.71773E-03   640   0.370E-01    0.234E-01
RMM:   4    -0.127895616572E+02    0.34466E-03   -0.13612E-03   556   0.198E-01    0.111E-01
RMM:   5    -0.127897683222E+02   -0.20666E-03   -0.12079E-04   368   0.738E-02    0.831E-02
RMM:   6    -0.127899280846E+02   -0.15976E-03   -0.69189E-05   368   0.515E-02
  30 F= -.12789928E+02 E0= -.12776949E+02  d E =-.316753E-02  mag=     0.9081
       N       E                     dE             d eps       ncg     rms          rms(c)
DAV:   1    -0.127915275325E+02   -0.17592E-02   -0.43485E-02   704   0.124E+00    0.225E-01
RMM:   2    -0.127909301933E+02    0.59734E-03   -0.19623E-03   640   0.267E-01    0.113E-01
RMM:   3    -0.127908283433E+02    0.10185E-03   -0.75226E-04   468   0.121E-01
  31 F= -.12790828E+02 E0= -.12778285E+02  d E =-.406779E-02  mag=     0.9083
       N       E                     dE             d eps       ncg     rms          rms(c)
DAV:   1    -0.127910838354E+02   -0.15364E-03   -0.18853E-02   728   0.786E-01    0.160E-01
RMM:   2    -0.127907824096E+02    0.30143E-03   -0.78963E-04   466   0.172E-01    0.893E-02
RMM:   3    -0.127906592050E+02    0.12320E-03   -0.43324E-04   378   0.987E-02
  32 F= -.12790659E+02 E0= -.12778181E+02  d E =-.389865E-02  mag=     0.9100
       N       E                     dE             d eps       ncg     rms          rms(c)
DAV:   1    -0.127908130750E+02   -0.30665E-04   -0.35170E-03   704   0.367E-01    0.714E-02
RMM:   2    -0.127908027987E+02    0.10276E-04   -0.18010E-04   368   0.848E-02
  33 F= -.12790803E+02 E0= -.12778078E+02  d E =-.404225E-02  mag=     0.9101
       N       E                     dE             d eps       ncg     rms          rms(c)
DAV:   1    -0.127909144298E+02   -0.10135E-03   -0.20199E-03   720   0.285E-01    0.703E-02
RMM:   2    -0.127908772454E+02    0.37184E-04   -0.16719E-04   368   0.798E-02
  34 F= -.12790877E+02 E0= -.12778061E+02  d E =-.411669E-02  mag=     0.9100
       N       E                     dE             d eps       ncg     rms          rms(c)
DAV:   1    -0.127908837820E+02    0.30648E-04   -0.24444E-04   460   0.122E-01    0.467E-02
RMM:   2    -0.127908724743E+02    0.11308E-04   -0.74236E-05   360   0.566E-02
  35 F= -.12790872E+02 E0= -.12778087E+02  d E =-.411192E-02  mag=     0.9098
