    2    2  800    2
  0.1687500E+04  0.1500000E-08  0.1500000E-08  0.1500000E-08  0.5000000E-15
  1.000000000000000E-004
  CAR 
 unknown system                          
     12      1     16
 
  0.0000000E+00  0.0000000E+00  0.0000000E+00  0.1000000E+01
    1      -31.608133    -30.310441
    2      -21.132069    -19.331534
    3      -13.228768    -12.286683
    4      -12.863350    -11.028238
    5      -12.863347    -11.028234
    6       -7.450074     -5.218066
    7       -7.450070     -5.218062
    8       -0.238169     -0.178146
    9       -0.096780      0.385679
   10        0.297097      0.397058
   11        0.513406      0.540359
   12        0.513447      0.540383
   13        0.575084      0.582258
   14        0.656302      0.655989
   15        0.698630      0.881869
   16        1.066477      1.133714
