       N       E                     dE             d eps       ncg     rms          rms(c)
DAV:   1     0.644305780706E+02    0.64431E+02   -0.25454E+03    96   0.265E+02
DAV:   2     0.866156409192E+01   -0.55769E+02   -0.55491E+02    88   0.921E+01
DAV:   3    -0.811389916610E+01   -0.16775E+02   -0.10364E+02   112   0.269E+01
DAV:   4    -0.923541851551E+01   -0.11215E+01   -0.11208E+01    80   0.775E+00
DAV:   5    -0.925578187071E+01   -0.20363E-01   -0.20360E-01    96   0.118E+00    0.647E+01
DAV:   6    -0.903654464577E+01    0.21924E+00   -0.10639E+00    72   0.709E+00    0.417E+01
DAV:   7    -0.830571014987E+01    0.73083E+00   -0.12287E+00    64   0.847E+00    0.138E+01
DAV:   8    -0.912823230856E+01   -0.82252E+00   -0.22091E-01    64   0.407E+00    0.231E+00
DAV:   9    -0.915863068929E+01   -0.30398E-01   -0.49662E-02    72   0.159E+00    0.146E+00
DAV:  10    -0.915882394477E+01   -0.19326E-03   -0.38132E-03    72   0.397E-01    0.563E-01
DAV:  11    -0.915955360807E+01   -0.72966E-03   -0.31160E-03    64   0.400E-01    0.162E-01
DAV:  12    -0.915973221186E+01   -0.17860E-03   -0.27774E-04    64   0.998E-02    0.933E-02
DAV:  13    -0.915987941805E+01   -0.14721E-03   -0.24178E-05    80   0.309E-02    0.358E-02
DAV:  14    -0.915997810503E+01   -0.98687E-04   -0.46899E-06    64   0.106E-02
   1 F= -.91599781E+01 E0= -.91599781E+01  d E =-.915998E+01  mag=     2.0000
       N       E                     dE             d eps       ncg     rms          rms(c)
DAV:   1    -0.549892048126E+01    0.36610E+01   -0.48224E+02    96   0.134E+02    0.550E+01
DAV:   2    -0.614331338473E+01   -0.64439E+00   -0.85636E+00    72   0.195E+01    0.364E+01
DAV:   3    -0.533072110838E+01    0.81259E+00   -0.15668E+00    64   0.917E+00    0.890E+00
DAV:   4    -0.638041836875E+01   -0.10497E+01   -0.55628E-01    72   0.584E+00    0.196E+00
DAV:   5    -0.642486739330E+01   -0.44449E-01   -0.45792E-02    72   0.118E+00    0.542E-01
DAV:   6    -0.643026151906E+01   -0.53941E-02   -0.14815E-03    72   0.253E-01    0.192E-01
DAV:   7    -0.643289091958E+01   -0.26294E-02   -0.34475E-04    72   0.111E-01    0.122E-01
DAV:   8    -0.643426257448E+01   -0.13717E-02   -0.22922E-03    64   0.243E-01    0.194E-01
DAV:   9    -0.643496013271E+01   -0.69756E-03   -0.17936E-03    64   0.223E-01    0.451E-02
DAV:  10    -0.643534263595E+01   -0.38250E-03   -0.51475E-05    48   0.441E-02    0.172E-02
DAV:  11    -0.643557188626E+01   -0.22925E-03   -0.27728E-05    48   0.230E-02    0.114E-02
DAV:  12    -0.643573232149E+01   -0.16044E-03   -0.91039E-06    48   0.164E-02    0.493E-03
DAV:  13    -0.643597071849E+01   -0.23840E-03   -0.13988E-05    48   0.127E-02    0.664E-03
DAV:  14    -0.643617043296E+01   -0.19971E-03   -0.23344E-05    64   0.140E-02    0.232E-03
DAV:  15    -0.643621820284E+01   -0.47770E-04   -0.30047E-06    56   0.586E-03
   2 F= -.64362182E+01 E0= -.64362182E+01  d E =0.272376E+01  mag=     2.0000
       N       E                     dE             d eps       ncg     rms          rms(c)
DAV:   1    -0.820794425985E+01   -0.17718E+01   -0.15387E+02    64   0.801E+01    0.278E+01
DAV:   2    -0.858682766134E+01   -0.37888E+00   -0.44685E+00    80   0.137E+01    0.132E+01
DAV:   3    -0.863923754685E+01   -0.52410E-01   -0.25506E-01    80   0.374E+00    0.679E+00
DAV:   4    -0.861560516463E+01    0.23632E-01   -0.59556E-02    80   0.186E+00    0.238E+00
DAV:   5    -0.871682509511E+01   -0.10122E+00   -0.87802E-03    88   0.678E-01    0.375E-01
DAV:   6    -0.872104140973E+01   -0.42163E-02   -0.17567E-03    80   0.280E-01    0.135E-01
DAV:   7    -0.872265179424E+01   -0.16104E-02   -0.23366E-04    88   0.103E-01    0.357E-02
DAV:   8    -0.872301942135E+01   -0.36763E-03   -0.73188E-06    80   0.149E-02    0.157E-02
DAV:   9    -0.872362722384E+01   -0.60780E-03   -0.30094E-05    88   0.213E-02    0.765E-03
DAV:  10    -0.872375617874E+01   -0.12895E-03   -0.35168E-06    88   0.735E-03    0.407E-03
DAV:  11    -0.872388217643E+01   -0.12600E-03   -0.47988E-06    80   0.793E-03    0.280E-03
DAV:  12    -0.872403660571E+01   -0.15443E-03   -0.16770E-05    96   0.131E-02    0.165E-03
DAV:  13    -0.872406329206E+01   -0.26686E-04   -0.72511E-07    72   0.344E-03
   3 F= -.87240633E+01 E0= -.87240633E+01  d E =0.435915E+00  mag=     2.0000
       N       E                     dE             d eps       ncg     rms          rms(c)
DAV:   1    -0.918501274043E+01   -0.46098E+00   -0.22459E+01    64   0.320E+01    0.176E+01
DAV:   2    -0.923362405982E+01   -0.48611E-01   -0.89680E-01    80   0.640E+00    0.107E+01
DAV:   3    -0.923676539747E+01   -0.31413E-02   -0.50661E-02    96   0.176E+00    0.488E+00
DAV:   4    -0.924694129222E+01   -0.10176E-01   -0.10497E-02    96   0.903E-01    0.188E+00
DAV:   5    -0.925905834291E+01   -0.12117E-01   -0.10601E-03    80   0.225E-01    0.153E-01
DAV:   6    -0.926060631832E+01   -0.15480E-02   -0.37548E-04    96   0.145E-01    0.529E-02
DAV:   7    -0.926090347921E+01   -0.29716E-03   -0.28948E-05    88   0.373E-02    0.109E-02
DAV:   8    -0.926102902081E+01   -0.12554E-03   -0.34439E-06    80   0.921E-03    0.702E-03
DAV:   9    -0.926118980804E+01   -0.16079E-03   -0.77466E-06    96   0.102E-02    0.345E-03
DAV:  10    -0.926125259340E+01   -0.62785E-04   -0.20780E-06    96   0.485E-03
   4 F= -.92612526E+01 E0= -.92612526E+01  d E =-.101274E+00  mag=     2.0000
       N       E                     dE             d eps       ncg     rms          rms(c)
DAV:   1    -0.929743646157E+01   -0.36247E-01   -0.13328E+00   104   0.789E+00    0.458E+00
DAV:   2    -0.929886642996E+01   -0.14300E-02   -0.51539E-02    80   0.157E+00    0.328E+00
DAV:   3    -0.929868316672E+01    0.18326E-03   -0.38857E-03    72   0.505E-01    0.160E+00
DAV:   4    -0.930070236851E+01   -0.20192E-02   -0.54133E-04    88   0.206E-01    0.347E-01
DAV:   5    -0.930092646998E+01   -0.22410E-03   -0.19704E-04    72   0.922E-02    0.389E-02
DAV:   6    -0.930109069325E+01   -0.16422E-03   -0.29692E-05    80   0.422E-02    0.998E-03
DAV:   7    -0.930112346497E+01   -0.32772E-04   -0.22167E-06    64   0.934E-03
   5 F= -.93011235E+01 E0= -.93011235E+01  d E =-.141145E+00  mag=     2.0000
       N       E                     dE             d eps       ncg     rms          rms(c)
DAV:   1    -0.930267656622E+01   -0.15859E-02   -0.88329E-02    96   0.204E+00    0.121E+00
DAV:   2    -0.930267204901E+01    0.45172E-05   -0.36542E-03    64   0.430E-01    0.868E-01
DAV:   3    -0.930267428459E+01   -0.22356E-05   -0.24999E-04    72   0.127E-01
   6 F= -.93026743E+01 E0= -.93026743E+01  d E =-.142696E+00  mag=     2.0000
       N       E                     dE             d eps       ncg     rms          rms(c)
DAV:   1    -0.930287006143E+01   -0.19801E-03   -0.34588E-04    80   0.132E-01    0.136E-01
DAV:   2    -0.930292165910E+01   -0.51598E-04   -0.31940E-05    72   0.447E-02
   7 F= -.93029217E+01 E0= -.93029217E+01  d E =-.142944E+00  mag=     2.0000
