    4    4    1    2
  0.3333385E+03  0.9223323E-09  0.9266297E-09  0.1560317E-08  0.5000000E-15
  1.000000000000000E-004
  CAR 
 unknown system                          
     29      8     20
 
  0.1250000E+00  0.1250000E+00  0.8673617E-18  0.1250000E+00
    1      -20.465526    -20.442324
    2      -20.261535    -20.233624
    3      -20.237824    -20.218871
    4      -10.169158    -10.040196
    5      -10.145922    -10.015970
    6      -10.035533     -9.963084
    7       -8.991952     -8.783210
    8       -8.939265     -8.781235
    9       -8.306907     -8.154365
   10       -8.258888     -8.147432
   11       -8.241255     -8.145607
   12       -7.749715     -7.740731
   13       -5.623658     -4.941286
   14       -5.462236     -4.872916
   15       -5.304338     -4.854241
   16       -4.490836     -4.207509
   17       -4.459986     -4.165461
   18       -0.871593     -0.026638
   19        0.211558      0.751709
   20        0.794364      1.401229
 
  0.3750000E+00  0.1250000E+00  0.1734723E-17  0.1250000E+00
    1      -20.465285    -20.442141
    2      -20.261439    -20.233586
    3      -20.238187    -20.219110
    4      -10.168427    -10.039561
    5      -10.151978    -10.020015
    6      -10.030515     -9.960079
    7       -8.993377     -8.783104
    8       -8.936214     -8.779331
    9       -8.304675     -8.153903
   10       -8.254876     -8.146929
   11       -8.242471     -8.144469
   12       -7.754187     -7.743417
   13       -5.622439     -4.940489
   14       -5.464403     -4.874086
   15       -5.301681     -4.852707
   16       -4.488494     -4.206365
   17       -4.480859     -4.176862
   18       -0.762859      0.009738
   19        0.220646      0.954072
   20        0.581180      1.373745
 
 -0.3750000E+00  0.1250000E+00 -0.1734723E-17  0.1250000E+00
    1      -20.465288    -20.442144
    2      -20.261439    -20.233586
    3      -20.238188    -20.219111
    4      -10.168437    -10.039567
    5      -10.151973    -10.020012
    6      -10.030517     -9.960081
    7       -8.993377     -8.783111
    8       -8.936214     -8.779324
    9       -8.304679     -8.153895
   10       -8.254873     -8.146977
   11       -8.242473     -8.144432
   12       -7.754188     -7.743418
   13       -5.622439     -4.940488
   14       -5.464402     -4.874084
   15       -5.301681     -4.852708
   16       -4.488564     -4.206373
   17       -4.480794     -4.176858
   18       -0.762891      0.009724
   19        0.220870      0.953927
   20        0.581111      1.374038
 
 -0.1250000E+00  0.1250000E+00  0.3252607E-18  0.1250000E+00
    1      -20.465525    -20.442324
    2      -20.261535    -20.233624
    3      -20.237822    -20.218868
    4      -10.169163    -10.040200
    5      -10.145913    -10.015962
    6      -10.035534     -9.963085
    7       -8.991951     -8.783222
    8       -8.939265     -8.781222
    9       -8.306906     -8.154352
   10       -8.258887     -8.147492
   11       -8.241255     -8.145557
   12       -7.749713     -7.740730
   13       -5.623658     -4.941285
   14       -5.462233     -4.872914
   15       -5.304337     -4.854241
   16       -4.490851     -4.207512
   17       -4.459971     -4.165457
   18       -0.871614     -0.026651
   19        0.211690      0.751669
   20        0.794734      1.401308
 
  0.1250000E+00  0.3750000E+00  0.8673617E-18  0.1250000E+00
    1      -20.465444    -20.442273
    2      -20.261615    -20.233672
    3      -20.237828    -20.218875
    4      -10.171338    -10.041424
    5      -10.145787    -10.015889
    6      -10.034777     -9.962706
    7       -8.992489     -8.782861
    8       -8.937632     -8.780812
    9       -8.306342     -8.154108
   10       -8.257907     -8.147589
   11       -8.241969     -8.145458
   12       -7.747735     -7.739719
   13       -5.623187     -4.941148
   14       -5.462878     -4.873328
   15       -5.303682     -4.854155
   16       -4.498820     -4.210434
   17       -4.459977     -4.165450
   18       -0.769602      0.004813
   19        0.214006      0.951633
   20        0.581843      1.368753
 
  0.3750000E+00  0.3750000E+00  0.3469447E-17  0.1250000E+00
    1      -20.465205    -20.442093
    2      -20.261523    -20.233638
    3      -20.238201    -20.219124
    4      -10.170610    -10.040802
    5      -10.151853    -10.019939
    6      -10.029747     -9.959689
    7       -8.993940     -8.783507
    8       -8.934585     -8.778170
    9       -8.304088     -8.153722
   10       -8.253972     -8.147018
   11       -8.243140     -8.144319
   12       -7.752202     -7.742402
   13       -5.621969     -4.940349
   14       -5.465078     -4.874508
   15       -5.300999     -4.852618
   16       -4.496178     -4.209245
   17       -4.480775     -4.176800
   18       -0.681803      0.033644
   19        0.354213      1.159905
   20        0.604391      1.554430
 
 -0.3750000E+00  0.3750000E+00 -0.2005774E-17  0.1250000E+00
    1      -20.465205    -20.442093
    2      -20.261523    -20.233639
    3      -20.238199    -20.219122
    4      -10.170615    -10.040805
    5      -10.151846    -10.019934
    6      -10.029748     -9.959690
    7       -8.993940     -8.783512
    8       -8.934584     -8.778165
    9       -8.304089     -8.153709
   10       -8.253969     -8.147065
   11       -8.243141     -8.144283
   12       -7.752202     -7.742401
   13       -5.621969     -4.940350
   14       -5.465076     -4.874506
   15       -5.300999     -4.852618
   16       -4.496213     -4.209250
   17       -4.480742     -4.176795
   18       -0.681843      0.033629
   19        0.354762      1.159431
   20        0.603454      1.557101
 
 -0.1250000E+00  0.3750000E+00  0.2168404E-17  0.1250000E+00
    1      -20.465446    -20.442275
    2      -20.261617    -20.233674
    3      -20.237829    -20.218875
    4      -10.171344    -10.041428
    5      -10.145781    -10.015884
    6      -10.034779     -9.962709
    7       -8.992491     -8.782874
    8       -8.937631     -8.780800
    9       -8.306345     -8.154098
   10       -8.257906     -8.147647
   11       -8.241970     -8.145415
   12       -7.747736     -7.739719
   13       -5.623187     -4.941149
   14       -5.462878     -4.873328
   15       -5.303684     -4.854157
   16       -4.498834     -4.210438
   17       -4.459966     -4.165448
   18       -0.769633      0.004799
   19        0.214242      0.951494
   20        0.581707      1.369212
