       N       E                     dE             d eps       ncg     rms          rms(c)
DAV:   1     0.204420293287E+03    0.20442E+03   -0.64182E+03   784   0.697E+02
DAV:   2     0.412590830218E+02   -0.16316E+03   -0.15884E+03  1064   0.132E+02
DAV:   3    -0.124280491170E+02   -0.53687E+02   -0.53011E+02   896   0.852E+01
DAV:   4    -0.150835166966E+02   -0.26555E+01   -0.25194E+01   684   0.223E+01
DAV:   5    -0.151480992869E+02   -0.64583E-01   -0.63820E-01   740   0.341E+00    0.189E+01
DAV:   6    -0.983674786179E+01    0.53114E+01   -0.12177E+01   676   0.233E+01    0.943E+00
DAV:   7    -0.109919796146E+02   -0.11552E+01   -0.44627E+00   668   0.206E+01    0.731E+00
DAV:   8    -0.124415850769E+02   -0.14496E+01   -0.11116E+00   704   0.764E+00    0.247E+00
DAV:   9    -0.130229612318E+02   -0.58138E+00   -0.22206E-01   652   0.265E+00    0.272E+00
DAV:  10    -0.130335689628E+02   -0.10608E-01   -0.15856E-02   740   0.822E-01    0.253E+00
DAV:  11    -0.134155284091E+02   -0.38196E+00   -0.87952E-02   648   0.132E+00    0.133E+00
DAV:  12    -0.136596791584E+02   -0.24415E+00   -0.19948E-01   700   0.107E+00    0.151E+00
DAV:  13    -0.136732852485E+02   -0.13606E-01   -0.89349E-03   684   0.659E-01    0.154E+00
DAV:  14    -0.136464510790E+02    0.26834E-01   -0.92268E-03   644   0.382E-01    0.135E+00
DAV:  15    -0.136610392477E+02   -0.14588E-01   -0.56689E-02   640   0.512E-01    0.136E+00
DAV:  16    -0.136652603629E+02   -0.42211E-02   -0.45163E-03   576   0.366E-01    0.130E+00
DAV:  17    -0.136651975420E+02    0.62821E-04   -0.15647E-03   572   0.135E-01
   1 F= -.13665198E+02 E0= -.13651042E+02  d E =-.283106E-01  mag=     1.5145
