    3    3  800    2
  0.1125000E+04  0.1500000E-08  0.1500000E-08  0.1500000E-08  0.5000000E-15
  1.000000000000000E-004
  CAR 
 unknown system                          
      6      1     20
 
  0.0000000E+00  0.0000000E+00  0.0000000E+00  0.1000000E+01
    1      -16.672614    -14.839905
    2      -11.110035    -10.616526
    3       -6.577375     -3.029688
    4       -5.714566     -2.442204
    5       -0.505546     -0.140153
    6        0.222217      0.353264
    7        0.366744      0.531940
    8        0.467758      0.617056
    9        0.476917      0.678542
   10        0.568847      0.694375
   11        0.650520      0.696032
   12        1.005667      1.053515
   13        1.033642      1.118848
   14        1.069129      1.255564
   15        1.072404      1.301806
   16        1.175556      1.304999
   17        1.179598      1.316770
   18        1.207657      1.328109
   19        1.213893      1.331217
   20        1.284348      1.352409
