       N       E                     dE             d eps       ncg     rms          rms(c)
DAV:   1     0.170365706279E+02    0.17037E+02   -0.10733E+03   120   0.949E+01
DAV:   2    -0.771226686253E+01   -0.24749E+02   -0.24749E+02   140   0.267E+01
DAV:   3    -0.929126135680E+01   -0.15790E+01   -0.83197E+00    80   0.603E+00
DAV:   4    -0.933738709286E+01   -0.46126E-01   -0.46126E-01   100   0.147E+00
DAV:   5    -0.933746561172E+01   -0.78519E-04   -0.78519E-04    80   0.657E-02    0.906E+00
DAV:   6    -0.879064652634E+01    0.54682E+00   -0.16236E+01   100   0.851E+00    0.437E+00
DAV:   7    -0.106710287133E+02   -0.18804E+01   -0.16162E+00    80   0.334E+00    0.224E+00
DAV:   8    -0.111466699602E+02   -0.47564E+00   -0.25979E-01    80   0.125E+00    0.965E-01
DAV:   9    -0.114326077375E+02   -0.28594E+00   -0.67726E-02   120   0.649E-01    0.384E-01
DAV:  10    -0.115474027089E+02   -0.11479E+00   -0.62666E-03   160   0.233E-01    0.172E-01
DAV:  11    -0.117022515106E+02   -0.15485E+00   -0.54635E-03    80   0.176E-01    0.873E-02
DAV:  12    -0.118333619661E+02   -0.13111E+00   -0.34240E-03   160   0.131E-01    0.504E-02
DAV:  13    -0.118895027699E+02   -0.56141E-01   -0.20957E-03   140   0.857E-02    0.249E-02
DAV:  14    -0.118957143594E+02   -0.62116E-02   -0.59904E-04   120   0.500E-02    0.169E-02
DAV:  15    -0.118963222264E+02   -0.60787E-03   -0.30294E-04   100   0.322E-02    0.118E-02
DAV:  16    -0.118987768573E+02   -0.24546E-02   -0.18560E-04   120   0.230E-02    0.874E-03
DAV:  17    -0.119008081756E+02   -0.20313E-02   -0.13392E-04   100   0.180E-02    0.519E-03
DAV:  18    -0.119014930800E+02   -0.68490E-03   -0.30998E-05    80   0.888E-03    0.344E-03
DAV:  19    -0.119017629314E+02   -0.26985E-03   -0.22527E-05   160   0.730E-03    0.214E-03
DAV:  20    -0.119017809518E+02   -0.18020E-04   -0.86340E-06   120   0.457E-03
   1 F= -.11901781E+02 E0= -.11901781E+02  d E =-.119018E+02  mag=     2.0008
       N       E                     dE             d eps       ncg     rms          rms(c)
DAV:   1    -0.114761067193E+02    0.42566E+00   -0.94938E+00    80   0.104E+01    0.881E-01
DAV:   2    -0.119925887547E+02   -0.51648E+00   -0.11976E+00   120   0.208E+00    0.622E-01
DAV:   3    -0.120230635798E+02   -0.30475E-01   -0.30232E-02    80   0.402E-01    0.232E-01
DAV:   4    -0.120272882589E+02   -0.42247E-02   -0.35773E-03   140   0.153E-01    0.149E-01
DAV:   5    -0.120341454414E+02   -0.68572E-02   -0.20866E-03   140   0.113E-01    0.436E-02
DAV:   6    -0.120369956884E+02   -0.28502E-02   -0.26842E-04    80   0.451E-02    0.178E-02
DAV:   7    -0.120388655718E+02   -0.18699E-02   -0.35977E-05   120   0.172E-02    0.122E-02
DAV:   8    -0.120403300394E+02   -0.14645E-02   -0.24246E-05    80   0.124E-02    0.379E-03
DAV:   9    -0.120406930007E+02   -0.36296E-03   -0.57382E-06   160   0.536E-03    0.293E-03
DAV:  10    -0.120408963806E+02   -0.20338E-03   -0.40068E-06   100   0.381E-03    0.189E-03
DAV:  11    -0.120410656839E+02   -0.16930E-03   -0.56628E-06   140   0.409E-03    0.916E-04
DAV:  12    -0.120411028046E+02   -0.37121E-04   -0.16794E-06    80   0.222E-03
   2 F= -.12041103E+02 E0= -.12041103E+02  d E =-.139322E+00  mag=     2.0000
       N       E                     dE             d eps       ncg     rms          rms(c)
DAV:   1    -0.113265135569E+02    0.71455E+00   -0.14419E+01    80   0.128E+01    0.104E+00
DAV:   2    -0.120238026047E+02   -0.69729E+00   -0.16186E+00   120   0.243E+00    0.694E-01
DAV:   3    -0.120716203913E+02   -0.47818E-01   -0.51408E-02   140   0.507E-01    0.270E-01
DAV:   4    -0.120782985726E+02   -0.66782E-02   -0.36246E-03   120   0.166E-01    0.164E-01
DAV:   5    -0.120878872943E+02   -0.95887E-02   -0.23650E-03   140   0.119E-01    0.621E-02
DAV:   6    -0.120928946914E+02   -0.50074E-02   -0.61312E-04   120   0.619E-02    0.230E-02
DAV:   7    -0.120956661357E+02   -0.27714E-02   -0.62410E-05   120   0.219E-02    0.157E-02
DAV:   8    -0.120974970568E+02   -0.18309E-02   -0.26479E-05   120   0.132E-02    0.606E-03
DAV:   9    -0.120984507925E+02   -0.95374E-03   -0.16301E-05   160   0.884E-03    0.409E-03
DAV:  10    -0.120987268771E+02   -0.27608E-03   -0.51466E-06    80   0.466E-03    0.232E-03
DAV:  11    -0.120989762123E+02   -0.24934E-03   -0.12584E-05   140   0.591E-03    0.136E-03
DAV:  12    -0.120990173861E+02   -0.41174E-04   -0.38555E-06    80   0.353E-03
   3 F= -.12099017E+02 E0= -.12099017E+02  d E =-.197236E+00  mag=     2.0000
       N       E                     dE             d eps       ncg     rms          rms(c)
DAV:   1    -0.120990788781E+02   -0.10267E-03   -0.51427E-04   120   0.776E-02    0.726E-03
DAV:   2    -0.120990818636E+02   -0.29855E-05   -0.84950E-06   140   0.795E-03
   4 F= -.12099082E+02 E0= -.12099082E+02  d E =-.197301E+00  mag=     2.0000
       N       E                     dE             d eps       ncg     rms          rms(c)
DAV:   1    -0.120990969093E+02   -0.18031E-04   -0.19092E-05   140   0.153E-02    0.255E-03
DAV:   2    -0.120991061239E+02   -0.92146E-05   -0.44352E-07   120   0.204E-03
   5 F= -.12099106E+02 E0= -.12099106E+02  d E =-.197325E+00  mag=     2.0000
       N       E                     dE             d eps       ncg     rms          rms(c)
DAV:   1    -0.120989195214E+02    0.17739E-03   -0.35258E-02    80   0.598E-01    0.758E-02
DAV:   2    -0.120986856282E+02    0.23389E-03   -0.58843E-04   140   0.630E-02    0.399E-02
DAV:   3    -0.120987437367E+02   -0.58108E-04   -0.85106E-05   120   0.270E-02
   6 F= -.12098744E+02 E0= -.12098744E+02  d E =0.362387E-03  mag=     2.0000
       N       E                     dE             d eps       ncg     rms          rms(c)
DAV:   1    -0.120990857189E+02   -0.40009E-03   -0.13572E-02   120   0.367E-01    0.445E-02
DAV:   2    -0.120990391929E+02    0.46526E-04   -0.22883E-04   160   0.373E-02
   7 F= -.12099039E+02 E0= -.12099039E+02  d E =0.669310E-04  mag=     2.0000
