    8    8  800    2
  0.4218750E+03  0.1500000E-08  0.1500000E-08  0.1500000E-08  0.5000000E-15
  1.000000000000000E-004
  CAR 
 unknown system                          
     14      1     24
 
  0.0000000E+00  0.0000000E+00  0.0000000E+00  0.1000000E+01
    1      -18.463428    -18.463430
    2      -14.923441    -14.923443
    3      -10.433496    -10.433496
    4      -10.433331    -10.433327
    5       -8.812044     -8.812058
    6       -8.044796     -8.044796
    7       -8.044492     -8.044489
    8       -0.438317     -0.438433
    9        0.193229      0.193140
   10        0.268028      0.268264
   11        0.373786      0.373609
   12        0.373900      0.373742
   13        0.609766      0.609636
   14        0.629138      0.629024
   15        0.958773      0.958834
   16        1.027319      1.027552
   17        1.027816      1.027993
   18        1.073324      1.073328
   19        1.086516      1.086258
   20        1.150672      1.150539
   21        1.157491      1.157384
   22        1.252996      1.253318
   23        1.277962      1.278082
   24        1.314379      1.314228
