       N       E                     dE             d eps       ncg     rms          rms(c)
DAV:   1     0.447426079629E+02    0.44743E+02   -0.29757E+03   144   0.218E+02
DAV:   2    -0.252484556284E+02   -0.69991E+02   -0.64818E+02   120   0.597E+01
DAV:   3    -0.339808289154E+02   -0.87324E+01   -0.87324E+01   144   0.250E+01
DAV:   4    -0.341773512763E+02   -0.19652E+00   -0.19652E+00   144   0.321E+00
DAV:   5    -0.341811205938E+02   -0.37693E-02   -0.37693E-02   144   0.341E-01    0.191E+01
DAV:   6    -0.140473843830E+02    0.20134E+02   -0.62385E+01   144   0.241E+01    0.885E+00
DAV:   7    -0.297248106616E+02   -0.15677E+02   -0.14057E+01   192   0.107E+01    0.536E+00
DAV:   8    -0.323180494600E+02   -0.25932E+01   -0.86793E-01   120   0.286E+00    0.300E+00
DAV:   9    -0.379229233804E+02   -0.56049E+01   -0.26302E+00   120   0.399E+00    0.104E+00
DAV:  10    -0.389636284519E+02   -0.10407E+01   -0.24703E-01   144   0.130E+00    0.737E-01
DAV:  11    -0.395742619688E+02   -0.61063E+00   -0.10115E-01   144   0.952E-01    0.406E-01
DAV:  12    -0.402417240507E+02   -0.66746E+00   -0.16543E-01   144   0.918E-01    0.189E-01
DAV:  13    -0.403561869600E+02   -0.11446E+00   -0.14723E-02   144   0.309E-01    0.815E-02
DAV:  14    -0.404710827533E+02   -0.11490E+00   -0.44486E-03   120   0.166E-01    0.483E-02
DAV:  15    -0.404720269638E+02   -0.94421E-03   -0.92346E-04    96   0.858E-02    0.317E-02
DAV:  16    -0.404708791056E+02    0.11479E-02   -0.52883E-04    96   0.705E-02    0.220E-02
DAV:  17    -0.404779597817E+02   -0.70807E-02   -0.54982E-04    96   0.586E-02    0.167E-02
DAV:  18    -0.404857400406E+02   -0.77803E-02   -0.53622E-04   144   0.467E-02    0.869E-03
DAV:  19    -0.404873841915E+02   -0.16442E-02   -0.34169E-05    96   0.170E-02    0.481E-03
DAV:  20    -0.404876150092E+02   -0.23082E-03   -0.90618E-06    96   0.102E-02    0.245E-03
DAV:  21    -0.404877981138E+02   -0.18310E-03   -0.52243E-06   144   0.705E-03    0.161E-03
DAV:  22    -0.404879117788E+02   -0.11367E-03   -0.15901E-06   120   0.469E-03    0.104E-03
DAV:  23    -0.404880030093E+02   -0.91231E-04   -0.22436E-06    96   0.386E-03
   1 F= -.40488003E+02 E0= -.40488003E+02  d E =-.404880E+02  mag=     0.0002
       N       E                     dE             d eps       ncg     rms          rms(c)
DAV:   1    -0.404865879925E+02    0.13238E-02   -0.97861E-01    96   0.404E+00    0.378E-01
DAV:   2    -0.404839309049E+02    0.26571E-02   -0.15579E-02    96   0.392E-01    0.201E-01
DAV:   3    -0.404833064555E+02    0.62445E-03   -0.46733E-03    96   0.193E-01    0.775E-02
DAV:   4    -0.404833276551E+02   -0.21200E-04   -0.36409E-04    96   0.553E-02
   2 F= -.40483328E+02 E0= -.40483328E+02  d E =0.467535E-02  mag=     0.0000
       N       E                     dE             d eps       ncg     rms          rms(c)
DAV:   1    -0.404930928048E+02   -0.97863E-02   -0.33811E-01    96   0.237E+00    0.209E-01
DAV:   2    -0.404923980500E+02    0.69475E-03   -0.50547E-03    96   0.235E-01    0.115E-01
DAV:   3    -0.404922000354E+02    0.19801E-03   -0.14451E-03    96   0.108E-01    0.425E-02
DAV:   4    -0.404922018489E+02   -0.18134E-05   -0.77163E-05   192   0.272E-02
   3 F= -.40492202E+02 E0= -.40492202E+02  d E =-.419884E-02  mag=     0.0000
       N       E                     dE             d eps       ncg     rms          rms(c)
DAV:   1    -0.404940572585E+02   -0.18572E-02   -0.28881E-01    96   0.211E+00    0.152E-01
DAV:   2    -0.404934480440E+02    0.60921E-03   -0.28446E-03    96   0.202E-01    0.782E-02
DAV:   3    -0.404934154041E+02    0.32640E-04   -0.20444E-03    96   0.128E-01    0.412E-02
DAV:   4    -0.404933876419E+02    0.27762E-04   -0.10984E-04    96   0.324E-02
   4 F= -.40493388E+02 E0= -.40493388E+02  d E =-.118579E-02  mag=     0.0000
       N       E                     dE             d eps       ncg     rms          rms(c)
DAV:   1    -0.404937689791E+02   -0.35358E-03   -0.28133E-02    96   0.657E-01    0.605E-02
DAV:   2    -0.404936454247E+02    0.12355E-03   -0.44145E-04    96   0.734E-02    0.268E-02
DAV:   3    -0.404936390583E+02    0.63664E-05   -0.23277E-04    96   0.446E-02
   5 F= -.40493639E+02 E0= -.40493639E+02  d E =-.143721E-02  mag=     0.0000
       N       E                     dE             d eps       ncg     rms          rms(c)
DAV:   1    -0.404936410497E+02    0.43750E-05   -0.35753E-04   192   0.761E-02    0.129E-02
DAV:   2    -0.404936389919E+02    0.20577E-05   -0.14950E-05    96   0.104E-02
   6 F= -.40493639E+02 E0= -.40493639E+02  d E =-.143714E-02  mag=     0.0000
       N       E                     dE             d eps       ncg     rms          rms(c)
DAV:   1    -0.404936407908E+02    0.25892E-06   -0.41920E-05   144   0.243E-02    0.242E-03
DAV:   2    -0.404936410266E+02   -0.23584E-06   -0.61849E-07   144   0.265E-03
   7 F= -.40493641E+02 E0= -.40493641E+02  d E =-.143918E-02  mag=     0.0000
       N       E                     dE             d eps       ncg     rms          rms(c)
DAV:   1    -0.404936417711E+02   -0.98038E-06   -0.42652E-05   144   0.261E-02    0.224E-03
DAV:   2    -0.404936418881E+02   -0.11694E-06   -0.41659E-07   144   0.212E-03
   8 F= -.40493642E+02 E0= -.40493642E+02  d E =-.144004E-02  mag=     0.0000
       N       E                     dE             d eps       ncg     rms          rms(c)
DAV:   1    -0.404938481202E+02   -0.20635E-03   -0.54187E-03    96   0.302E-01    0.210E-02
DAV:   2    -0.404938461261E+02    0.19941E-05   -0.60628E-05   192   0.295E-02
   9 F= -.40493846E+02 E0= -.40493846E+02  d E =-.204238E-03  mag=     0.0000
