    7    7  800    2
  0.4821429E+03  0.1500000E-08  0.1500000E-08  0.1500000E-08  0.5000000E-15
  1.000000000000000E-004
  CAR 
 unknown system                          
     13      1     20
 
  0.0000000E+00  0.0000000E+00  0.0000000E+00  0.1000000E+01
    1      -18.633263    -18.241103
    2      -14.796161    -14.241389
    3      -10.916891    -10.768283
    4       -9.940924     -9.614045
    5       -9.473680     -9.291108
    6       -8.475125     -8.365439
    7       -4.557802     -2.229422
    8       -0.457529     -0.348654
    9        0.129274      0.225710
   10        0.260729      0.327520
   11        0.302928      0.357075
   12        0.373649      0.498666
   13        0.557664      0.596875
   14        0.607067      0.657706
   15        0.939448      0.979843
   16        0.986637      1.001908
   17        0.987116      1.061672
   18        1.049955      1.093120
   19        1.095357      1.139093
   20        1.114419      1.175557
