       N       E                     dE             d eps       ncg     rms          rms(c)
DAV:   1     0.499275131983E+02    0.49928E+02   -0.26066E+03   120   0.237E+02
DAV:   2    -0.234305907396E+02   -0.73358E+02   -0.70228E+02   140   0.629E+01
DAV:   3    -0.295487053236E+02   -0.61181E+01   -0.61181E+01    80   0.232E+01
DAV:   4    -0.297113943148E+02   -0.16269E+00   -0.16269E+00   120   0.451E+00
DAV:   5    -0.297123159785E+02   -0.92166E-03   -0.92166E-03    80   0.271E-01    0.164E+01
DAV:   6    -0.149178990556E+02    0.14794E+02   -0.51593E+01   120   0.241E+01    0.786E+00
DAV:   7    -0.263143757051E+02   -0.11396E+02   -0.98856E+00   160   0.105E+01    0.462E+00
DAV:   8    -0.287033700960E+02   -0.23890E+01   -0.66226E-01    80   0.293E+00    0.250E+00
DAV:   9    -0.324077309344E+02   -0.37044E+01   -0.15635E+00   100   0.356E+00    0.817E-01
DAV:  10    -0.331703909711E+02   -0.76266E+00   -0.13326E-01   120   0.118E+00    0.565E-01
DAV:  11    -0.337282093547E+02   -0.55782E+00   -0.72251E-02   100   0.920E-01    0.316E-01
DAV:  12    -0.342742699535E+02   -0.54606E+00   -0.86847E-02   160   0.805E-01    0.135E-01
DAV:  13    -0.344333428573E+02   -0.15907E+00   -0.11059E-02   100   0.287E-01    0.757E-02
DAV:  14    -0.345201561654E+02   -0.86813E-01   -0.53406E-03   100   0.195E-01    0.412E-02
DAV:  15    -0.345187596545E+02    0.13965E-02   -0.47344E-04   120   0.659E-02    0.291E-02
DAV:  16    -0.345215026345E+02   -0.27430E-02   -0.80451E-04   120   0.838E-02    0.204E-02
DAV:  17    -0.345265117178E+02   -0.50091E-02   -0.46308E-04    80   0.541E-02    0.145E-02
DAV:  18    -0.345321795289E+02   -0.56678E-02   -0.39192E-04   160   0.418E-02    0.932E-03
DAV:  19    -0.345342558367E+02   -0.20763E-02   -0.48247E-05   120   0.185E-02    0.440E-03
DAV:  20    -0.345345565935E+02   -0.30076E-03   -0.17774E-05   160   0.106E-02    0.288E-03
DAV:  21    -0.345346387869E+02   -0.82193E-04   -0.37256E-06   120   0.509E-03
   1 F= -.34534639E+02 E0= -.34534639E+02  d E =-.345346E+02  mag=     1.0009
       N       E                     dE             d eps       ncg     rms          rms(c)
DAV:   1    -0.342190243893E+02    0.31553E+00   -0.33016E+01    80   0.282E+01    0.162E+00
DAV:   2    -0.345018347197E+02   -0.28281E+00   -0.11965E+00   120   0.442E+00    0.988E-01
DAV:   3    -0.345346128188E+02   -0.32778E-01   -0.51640E-02   140   0.105E+00    0.541E-01
DAV:   4    -0.345393178729E+02   -0.47051E-02   -0.16259E-02   100   0.596E-01    0.216E-01
DAV:   5    -0.345531013613E+02   -0.13783E-01   -0.35715E-03   160   0.238E-01    0.107E-01
DAV:   6    -0.345597286125E+02   -0.66273E-02   -0.57227E-04   120   0.867E-02    0.430E-02
DAV:   7    -0.345627471964E+02   -0.30186E-02   -0.85138E-05    80   0.407E-02    0.143E-02
DAV:   8    -0.345641410589E+02   -0.13939E-02   -0.18962E-05    80   0.173E-02    0.764E-03
DAV:   9    -0.345652079694E+02   -0.10669E-02   -0.14855E-05   120   0.133E-02    0.448E-03
DAV:  10    -0.345657817821E+02   -0.57381E-03   -0.85125E-06   120   0.823E-03    0.277E-03
DAV:  11    -0.345660703482E+02   -0.28857E-03   -0.15320E-05   100   0.938E-03    0.248E-03
DAV:  12    -0.345660698236E+02    0.52458E-06   -0.39187E-06   120   0.500E-03
   2 F= -.34566070E+02 E0= -.34566070E+02  d E =-.314310E-01  mag=     1.0000
       N       E                     dE             d eps       ncg     rms          rms(c)
DAV:   1    -0.346373087559E+02   -0.71238E-01   -0.69068E+00    80   0.129E+01    0.779E-01
DAV:   2    -0.346360633163E+02    0.12454E-02   -0.11502E-01   160   0.154E+00    0.443E-01
DAV:   3    -0.346412687506E+02   -0.52054E-02   -0.65866E-03   160   0.406E-01    0.247E-01
DAV:   4    -0.346431247831E+02   -0.18560E-02   -0.27178E-03    80   0.221E-01    0.944E-02
DAV:   5    -0.346467108252E+02   -0.35860E-02   -0.61687E-04   120   0.939E-02    0.364E-02
DAV:   6    -0.346487852155E+02   -0.20744E-02   -0.81017E-05   120   0.365E-02    0.154E-02
DAV:   7    -0.346497172642E+02   -0.93205E-03   -0.11539E-05   120   0.147E-02    0.573E-03
DAV:   8    -0.346501402027E+02   -0.42294E-03   -0.51663E-06    80   0.822E-03    0.313E-03
DAV:   9    -0.346504411247E+02   -0.30092E-03   -0.34359E-06   160   0.584E-03    0.185E-03
DAV:  10    -0.346506389685E+02   -0.19784E-03   -0.30580E-06    80   0.466E-03    0.124E-03
DAV:  11    -0.346506818751E+02   -0.42907E-04   -0.29953E-06   120   0.420E-03
   3 F= -.34650682E+02 E0= -.34650682E+02  d E =-.116043E+00  mag=     1.0000
       N       E                     dE             d eps       ncg     rms          rms(c)
DAV:   1    -0.345689946859E+02    0.81644E-01   -0.21766E+01    80   0.224E+01    0.130E+00
DAV:   2    -0.347166989634E+02   -0.14770E+00   -0.63725E-01   100   0.328E+00    0.612E-01
DAV:   3    -0.347561046420E+02   -0.39406E-01   -0.25480E-02   160   0.773E-01    0.312E-01
DAV:   4    -0.347601344898E+02   -0.40298E-02   -0.30752E-03   100   0.247E-01    0.149E-01
DAV:   5    -0.347645816181E+02   -0.44471E-02   -0.96405E-04   120   0.121E-01    0.586E-02
DAV:   6    -0.347673263252E+02   -0.27447E-02   -0.15360E-04   160   0.436E-02    0.214E-02
DAV:   7    -0.347689352857E+02   -0.16090E-02   -0.40323E-05   120   0.239E-02    0.951E-03
DAV:   8    -0.347696193125E+02   -0.68403E-03   -0.89071E-06    80   0.107E-02    0.486E-03
DAV:   9    -0.347700909147E+02   -0.47160E-03   -0.81632E-06   120   0.777E-03    0.273E-03
DAV:  10    -0.347703227401E+02   -0.23183E-03   -0.66116E-06   120   0.622E-03    0.194E-03
DAV:  11    -0.347704061427E+02   -0.83403E-04   -0.76229E-06   120   0.646E-03
   4 F= -.34770406E+02 E0= -.34770406E+02  d E =-.119724E+00  mag=     1.0000
       N       E                     dE             d eps       ncg     rms          rms(c)
DAV:   1    -0.347706887082E+02   -0.36597E-03   -0.59560E-01    80   0.361E+00    0.218E-01
DAV:   2    -0.347700221018E+02    0.66661E-03   -0.89893E-03   120   0.427E-01    0.105E-01
DAV:   3    -0.347718427696E+02   -0.18207E-02   -0.58239E-04   160   0.122E-01    0.532E-02
DAV:   4    -0.347720480876E+02   -0.20532E-03   -0.15068E-04   140   0.480E-02    0.250E-02
DAV:   5    -0.347723078327E+02   -0.25975E-03   -0.25311E-05   160   0.184E-02    0.988E-03
DAV:   6    -0.347725004603E+02   -0.19263E-03   -0.89179E-06   160   0.838E-03    0.393E-03
DAV:   7    -0.347725880314E+02   -0.87571E-04   -0.11104E-06   140   0.372E-03
   5 F= -.34772588E+02 E0= -.34772588E+02  d E =-.121906E+00  mag=     1.0000
       N       E                     dE             d eps       ncg     rms          rms(c)
DAV:   1    -0.347643135275E+02    0.81869E-02   -0.73015E+00    80   0.133E+01    0.776E-01
DAV:   2    -0.347623310921E+02    0.19824E-02   -0.12018E-01   140   0.156E+00    0.445E-01
DAV:   3    -0.347725501994E+02   -0.10219E-01   -0.10072E-02   120   0.472E-01    0.240E-01
DAV:   4    -0.347738531920E+02   -0.13030E-02   -0.37428E-03   140   0.281E-01    0.103E-01
DAV:   5    -0.347754001109E+02   -0.15469E-02   -0.47340E-04   120   0.998E-02    0.482E-02
DAV:   6    -0.347762560156E+02   -0.85590E-03   -0.15631E-04   140   0.488E-02    0.183E-02
DAV:   7    -0.347766164792E+02   -0.36046E-03   -0.15861E-05   100   0.198E-02    0.665E-03
DAV:   8    -0.347768846097E+02   -0.26813E-03   -0.64750E-06   120   0.918E-03    0.390E-03
DAV:   9    -0.347770553869E+02   -0.17078E-03   -0.32741E-06   120   0.593E-03    0.214E-03
DAV:  10    -0.347771852062E+02   -0.12982E-03   -0.46778E-06   120   0.562E-03    0.163E-03
DAV:  11    -0.347772487183E+02   -0.63512E-04   -0.59880E-06   140   0.551E-03
   6 F= -.34777249E+02 E0= -.34777249E+02  d E =-.466069E-02  mag=     1.0000
       N       E                     dE             d eps       ncg     rms          rms(c)
DAV:   1    -0.347924003535E+02   -0.15215E-01   -0.15969E+00    80   0.625E+00    0.362E-01
DAV:   2    -0.347923809245E+02    0.19429E-04   -0.26673E-02   120   0.742E-01    0.214E-01
DAV:   3    -0.347941991086E+02   -0.18182E-02   -0.21293E-03   160   0.222E-01    0.117E-01
DAV:   4    -0.347943605116E+02   -0.16140E-03   -0.81681E-04   140   0.129E-01    0.506E-02
DAV:   5    -0.347948083541E+02   -0.44784E-03   -0.11312E-04   140   0.479E-02    0.223E-02
DAV:   6    -0.347951244187E+02   -0.31606E-03   -0.41170E-05   120   0.250E-02    0.865E-03
DAV:   7    -0.347952620521E+02   -0.13763E-03   -0.43496E-06   120   0.108E-02    0.312E-03
DAV:   8    -0.347953551651E+02   -0.93113E-04   -0.14922E-06   120   0.435E-03
   7 F= -.34795355E+02 E0= -.34795355E+02  d E =-.227671E-01  mag=     1.0000
       N       E                     dE             d eps       ncg     rms          rms(c)
DAV:   1    -0.348243485887E+02   -0.29087E-01   -0.15834E+00    80   0.633E+00    0.385E-01
DAV:   2    -0.348240690292E+02    0.27956E-03   -0.23342E-02   140   0.677E-01    0.224E-01
DAV:   3    -0.348250732778E+02   -0.10042E-02   -0.20696E-03   160   0.213E-01    0.121E-01
DAV:   4    -0.348257557223E+02   -0.68244E-03   -0.54269E-04   120   0.106E-01    0.458E-02
DAV:   5    -0.348262538733E+02   -0.49815E-03   -0.78626E-05   120   0.376E-02    0.210E-02
DAV:   6    -0.348265158743E+02   -0.26200E-03   -0.25322E-05   120   0.200E-02    0.732E-03
DAV:   7    -0.348266209032E+02   -0.10503E-03   -0.30423E-06   100   0.866E-03    0.347E-03
DAV:   8    -0.348267111060E+02   -0.90203E-04   -0.20143E-06   120   0.502E-03
   8 F= -.34826711E+02 E0= -.34826711E+02  d E =-.313559E-01  mag=     1.0000
       N       E                     dE             d eps       ncg     rms          rms(c)
DAV:   1    -0.348343731704E+02   -0.77523E-02   -0.15757E+00    80   0.633E+00    0.384E-01
DAV:   2    -0.348342602112E+02    0.11296E-03   -0.23964E-02   160   0.684E-01    0.227E-01
DAV:   3    -0.348351033723E+02   -0.84316E-03   -0.19793E-03   140   0.212E-01    0.122E-01
DAV:   4    -0.348357618664E+02   -0.65849E-03   -0.61305E-04   120   0.112E-01    0.461E-02
DAV:   5    -0.348362639695E+02   -0.50210E-03   -0.82839E-05   140   0.393E-02    0.213E-02
DAV:   6    -0.348365208168E+02   -0.25685E-03   -0.25262E-05   140   0.202E-02    0.784E-03
DAV:   7    -0.348366469000E+02   -0.12608E-03   -0.35130E-06   100   0.903E-03    0.383E-03
DAV:   8    -0.348367681764E+02   -0.12128E-03   -0.31660E-06   120   0.557E-03    0.212E-03
DAV:   9    -0.348368410375E+02   -0.72861E-04   -0.31490E-06   120   0.505E-03
   9 F= -.34836841E+02 E0= -.34836841E+02  d E =-.414859E-01  mag=     1.0000
       N       E                     dE             d eps       ncg     rms          rms(c)
DAV:   1    -0.348528073770E+02   -0.16039E-01   -0.16755E+00    80   0.650E+00    0.320E-01
DAV:   2    -0.348536433777E+02   -0.83600E-03   -0.21291E-02   160   0.718E-01    0.210E-01
DAV:   3    -0.348538420830E+02   -0.19871E-03   -0.18232E-03   120   0.206E-01    0.112E-01
DAV:   4    -0.348541190592E+02   -0.27698E-03   -0.95100E-04   120   0.146E-01    0.486E-02
DAV:   5    -0.348544112282E+02   -0.29217E-03   -0.15610E-04   160   0.587E-02    0.263E-02
DAV:   6    -0.348545523937E+02   -0.14117E-03   -0.51158E-05   120   0.283E-02    0.996E-03
DAV:   7    -0.348546026829E+02   -0.50289E-04   -0.56314E-06   100   0.116E-02
  10 F= -.34854603E+02 E0= -.34854603E+02  d E =-.177616E-01  mag=     1.0000
       N       E                     dE             d eps       ncg     rms          rms(c)
DAV:   1    -0.348554098965E+02   -0.85750E-03   -0.13816E-01    80   0.187E+00    0.922E-02
DAV:   2    -0.348554625494E+02   -0.52653E-04   -0.17950E-03   160   0.208E-01    0.609E-02
DAV:   3    -0.348555220564E+02   -0.59507E-04   -0.15521E-04   120   0.599E-02
  11 F= -.34855522E+02 E0= -.34855522E+02  d E =-.186810E-01  mag=     1.0000
       N       E                     dE             d eps       ncg     rms          rms(c)
DAV:   1    -0.348622941032E+02   -0.68316E-02   -0.18588E-01    80   0.218E+00    0.132E-01
DAV:   2    -0.348622287084E+02    0.65395E-04   -0.21545E-03   100   0.207E-01    0.773E-02
DAV:   3    -0.348622122997E+02    0.16409E-04   -0.47144E-04   100   0.784E-02
  12 F= -.34862212E+02 E0= -.34862212E+02  d E =-.669024E-02  mag=     1.0000
       N       E                     dE             d eps       ncg     rms          rms(c)
DAV:   1    -0.348663726461E+02   -0.41439E-02   -0.43552E-01    80   0.332E+00    0.204E-01
DAV:   2    -0.348661639077E+02    0.20874E-03   -0.49788E-03   120   0.312E-01    0.121E-01
DAV:   3    -0.348660776454E+02    0.86262E-04   -0.11082E-03   140   0.117E-01    0.550E-02
DAV:   4    -0.348662537523E+02   -0.17611E-03   -0.63682E-05   160   0.448E-02    0.267E-02
DAV:   5    -0.348663401389E+02   -0.86387E-04   -0.34234E-05   160   0.222E-02
  13 F= -.34866340E+02 E0= -.34866340E+02  d E =-.108181E-01  mag=     1.0000
       N       E                     dE             d eps       ncg     rms          rms(c)
DAV:   1    -0.348695804782E+02   -0.33267E-02   -0.28691E-01    80   0.266E+00    0.138E-01
DAV:   2    -0.348697163527E+02   -0.13587E-03   -0.45180E-03   160   0.306E-01    0.854E-02
DAV:   3    -0.348699557635E+02   -0.23941E-03   -0.25967E-04   120   0.781E-02    0.468E-02
DAV:   4    -0.348699810507E+02   -0.25287E-04   -0.15720E-04   140   0.564E-02
  14 F= -.34869981E+02 E0= -.34869981E+02  d E =-.364091E-02  mag=     1.0000
       N       E                     dE             d eps       ncg     rms          rms(c)
DAV:   1    -0.348703356731E+02   -0.37991E-03   -0.50363E-02   120   0.111E+00    0.616E-02
DAV:   2    -0.348703771008E+02   -0.41428E-04   -0.69040E-04   140   0.118E-01
  15 F= -.34870377E+02 E0= -.34870377E+02  d E =-.403696E-02  mag=     1.0000
       N       E                     dE             d eps       ncg     rms          rms(c)
DAV:   1    -0.348728305897E+02   -0.24949E-02   -0.13669E-01    80   0.183E+00    0.127E-01
DAV:   2    -0.348725670945E+02    0.26350E-03   -0.19799E-03   140   0.196E-01    0.701E-02
DAV:   3    -0.348727993354E+02   -0.23224E-03   -0.19058E-04   140   0.667E-02    0.409E-02
DAV:   4    -0.348729174866E+02   -0.11815E-03   -0.56126E-05   160   0.309E-02    0.172E-02
DAV:   5    -0.348730376700E+02   -0.12018E-03   -0.10512E-05   100   0.110E-02    0.722E-03
DAV:   6    -0.348731241116E+02   -0.86442E-04   -0.39317E-06   120   0.631E-03
  16 F= -.34873124E+02 E0= -.34873124E+02  d E =-.274701E-02  mag=     1.0000
       N       E                     dE             d eps       ncg     rms          rms(c)
DAV:   1    -0.348737549934E+02   -0.71732E-03   -0.11688E-01    80   0.169E+00    0.107E-01
DAV:   2    -0.348736070267E+02    0.14797E-03   -0.16977E-03   140   0.178E-01    0.585E-02
DAV:   3    -0.348737649812E+02   -0.15795E-03   -0.15412E-04   120   0.585E-02    0.334E-02
DAV:   4    -0.348738294479E+02   -0.64467E-04   -0.42859E-05    80   0.279E-02
  17 F= -.34873829E+02 E0= -.34873829E+02  d E =-.345235E-02  mag=     1.0000
       N       E                     dE             d eps       ncg     rms          rms(c)
DAV:   1    -0.348744172453E+02   -0.65226E-03   -0.40393E-02   100   0.976E-01    0.544E-02
DAV:   2    -0.348744046005E+02    0.12645E-04   -0.60852E-04   100   0.109E-01
  18 F= -.34874405E+02 E0= -.34874405E+02  d E =-.575153E-03  mag=     1.0000
       N       E                     dE             d eps       ncg     rms          rms(c)
DAV:   1    -0.348745261505E+02   -0.10891E-03   -0.39229E-02    80   0.969E-01    0.669E-02
DAV:   2    -0.348743966929E+02    0.12946E-03   -0.64720E-04   120   0.117E-01    0.395E-02
DAV:   3    -0.348745012639E+02   -0.10457E-03   -0.55346E-05    80   0.404E-02    0.231E-02
DAV:   4    -0.348745828430E+02   -0.81579E-04   -0.39513E-05   100   0.275E-02
  19 F= -.34874583E+02 E0= -.34874583E+02  d E =-.753395E-03  mag=     1.0000
       N       E                     dE             d eps       ncg     rms          rms(c)
DAV:   1    -0.348749012657E+02   -0.40000E-03   -0.16717E-02   100   0.633E-01    0.363E-02
DAV:   2    -0.348749241611E+02   -0.22895E-04   -0.26393E-04   140   0.703E-02
  20 F= -.34874924E+02 E0= -.34874924E+02  d E =-.341318E-03  mag=     1.0000
       N       E                     dE             d eps       ncg     rms          rms(c)
DAV:   1    -0.348748707071E+02    0.30559E-04   -0.93394E-02    80   0.150E+00    0.907E-02
DAV:   2    -0.348746944760E+02    0.17623E-03   -0.15361E-03   120   0.173E-01    0.462E-02
DAV:   3    -0.348749740380E+02   -0.27956E-03   -0.77568E-05   120   0.493E-02    0.253E-02
DAV:   4    -0.348750193483E+02   -0.45310E-04   -0.31166E-05   120   0.216E-02
  21 F= -.34875019E+02 E0= -.34875019E+02  d E =-.436505E-03  mag=     1.0000
       N       E                     dE             d eps       ncg     rms          rms(c)
DAV:   1    -0.348751164294E+02   -0.14239E-03   -0.37170E-03   100   0.297E-01    0.173E-02
DAV:   2    -0.348751830457E+02   -0.66616E-04   -0.66363E-05   100   0.348E-02
  22 F= -.34875183E+02 E0= -.34875183E+02  d E =-.600203E-03  mag=     1.0000
       N       E                     dE             d eps       ncg     rms          rms(c)
DAV:   1    -0.348754141968E+02   -0.29777E-03   -0.42017E-03   140   0.321E-01    0.205E-02
DAV:   2    -0.348754490773E+02   -0.34881E-04   -0.90398E-05   100   0.467E-02
  23 F= -.34875449E+02 E0= -.34875449E+02  d E =-.266032E-03  mag=     1.0000
       N       E                     dE             d eps       ncg     rms          rms(c)
DAV:   1    -0.348755049376E+02   -0.90741E-04   -0.27146E-03   120   0.262E-01    0.204E-02
DAV:   2    -0.348755117439E+02   -0.68063E-05   -0.49086E-05   160   0.359E-02
  24 F= -.34875512E+02 E0= -.34875512E+02  d E =-.328698E-03  mag=     1.0000
       N       E                     dE             d eps       ncg     rms          rms(c)
DAV:   1    -0.348755229177E+02   -0.17980E-04   -0.70010E-05   140   0.394E-02    0.608E-03
DAV:   2    -0.348755302873E+02   -0.73696E-05   -0.37425E-06   140   0.991E-03
  25 F= -.34875530E+02 E0= -.34875530E+02  d E =-.347242E-03  mag=     1.0000
       N       E                     dE             d eps       ncg     rms          rms(c)
DAV:   1    -0.348755303216E+02   -0.74039E-05   -0.56283E-04   100   0.118E-01    0.653E-03
DAV:   2    -0.348755341567E+02   -0.38352E-05   -0.12206E-05   120   0.173E-02
  26 F= -.34875534E+02 E0= -.34875534E+02  d E =-.351111E-03  mag=     1.0000
