    4    4  800    2
  0.8437500E+03  0.1500000E-08  0.1500000E-08  0.1500000E-08  0.5000000E-15
  1.000000000000000E-004
  CAR 
 unknown system                          
      7      1     20
 
  0.0000000E+00  0.0000000E+00  0.0000000E+00  0.1000000E+01
    1      -16.820424    -15.858585
    2      -10.158070     -9.914629
    3      -10.154344     -9.911243
    4       -5.419686     -2.761459
    5       -0.474956     -0.259945
    6        0.244655      0.308832
    7        0.438553      0.509738
    8        0.442833      0.522284
    9        0.490995      0.646397
   10        0.626277      0.651481
   11        0.631689      0.678058
   12        1.037584      1.082638
   13        1.052639      1.101335
   14        1.075996      1.111100
   15        1.098088      1.209816
   16        1.158203      1.258273
   17        1.188023      1.297246
   18        1.205840      1.297746
   19        1.271055      1.305398
   20        1.275804      1.334557
