       N       E                     dE             d eps       ncg     rms          rms(c)
DAV:   1     0.115308145607E+02    0.11531E+02   -0.13849E+03   140   0.116E+02
DAV:   2    -0.136273021017E+02   -0.25158E+02   -0.25158E+02   120   0.339E+01
DAV:   3    -0.145650045075E+02   -0.93770E+00   -0.93770E+00   120   0.708E+00
DAV:   4    -0.145776962918E+02   -0.12692E-01   -0.12692E-01    80   0.816E-01
DAV:   5    -0.145779306180E+02   -0.23433E-03   -0.23433E-03   160   0.107E-01    0.118E+01
DAV:   6    -0.788616618486E+01    0.66918E+01   -0.28779E+01   100   0.132E+01    0.562E+00
DAV:   7    -0.139968707833E+02   -0.61107E+01   -0.48298E+00   100   0.561E+00    0.305E+00
DAV:   8    -0.155919318033E+02   -0.15951E+01   -0.44806E-01   140   0.163E+00    0.165E+00
DAV:   9    -0.168978226244E+02   -0.13059E+01   -0.39366E-01    80   0.138E+00    0.465E-01
DAV:  10    -0.172393938221E+02   -0.34157E+00   -0.39845E-02   160   0.511E-01    0.295E-01
DAV:  11    -0.174568151985E+02   -0.21742E+00   -0.13467E-02    80   0.295E-01    0.181E-01
DAV:  12    -0.177428519799E+02   -0.28604E+00   -0.21860E-02   120   0.307E-01    0.715E-02
DAV:  13    -0.178430301015E+02   -0.10018E+00   -0.57873E-03   100   0.160E-01    0.392E-02
DAV:  14    -0.178653602338E+02   -0.22330E-01   -0.17746E-03   100   0.855E-02    0.206E-02
DAV:  15    -0.178630568545E+02    0.23034E-02   -0.23076E-04    80   0.337E-02    0.168E-02
DAV:  16    -0.178661191728E+02   -0.30623E-02   -0.36772E-04    80   0.370E-02    0.984E-03
DAV:  17    -0.178710430101E+02   -0.49238E-02   -0.35010E-04   160   0.304E-02    0.844E-03
DAV:  18    -0.178720047954E+02   -0.96179E-03   -0.24902E-05    80   0.108E-02    0.461E-03
DAV:  19    -0.178725512256E+02   -0.54643E-03   -0.22597E-05    80   0.945E-03    0.256E-03
DAV:  20    -0.178725646178E+02   -0.13392E-04   -0.39656E-06   100   0.463E-03
   1 F= -.17872565E+02 E0= -.17872565E+02  d E =-.178726E+02  mag=     1.0009
       N       E                     dE             d eps       ncg     rms          rms(c)
DAV:   1    -0.175982317709E+02    0.27432E+00   -0.14590E+01    80   0.139E+01    0.114E+00
DAV:   2    -0.180055004361E+02   -0.40727E+00   -0.92898E-01   120   0.258E+00    0.613E-01
DAV:   3    -0.180487710937E+02   -0.43271E-01   -0.26882E-02   100   0.476E-01    0.222E-01
DAV:   4    -0.180526291761E+02   -0.38581E-02   -0.20950E-03   140   0.121E-01    0.120E-01
DAV:   5    -0.180577446083E+02   -0.51154E-02   -0.84148E-04   120   0.660E-02    0.521E-02
DAV:   6    -0.180605418606E+02   -0.27973E-02   -0.20479E-04   120   0.326E-02    0.149E-02
DAV:   7    -0.180621799319E+02   -0.16381E-02   -0.30729E-05   100   0.164E-02    0.820E-03
DAV:   8    -0.180636413968E+02   -0.14615E-02   -0.32298E-05   120   0.125E-02    0.405E-03
DAV:   9    -0.180641191209E+02   -0.47772E-03   -0.17639E-05   160   0.786E-03    0.280E-03
DAV:  10    -0.180642370494E+02   -0.11793E-03   -0.13191E-05   160   0.588E-03    0.176E-03
DAV:  11    -0.180643126790E+02   -0.75630E-04   -0.95678E-06   120   0.542E-03
   2 F= -.18064313E+02 E0= -.18064313E+02  d E =-.191748E+00  mag=     1.0000
       N       E                     dE             d eps       ncg     rms          rms(c)
DAV:   1    -0.176449837182E+02    0.41925E+00   -0.20261E+01    80   0.162E+01    0.136E+00
DAV:   2    -0.180545280123E+02   -0.40954E+00   -0.11165E+00    80   0.282E+00    0.639E-01
DAV:   3    -0.181122712674E+02   -0.57743E-01   -0.47984E-02   160   0.623E-01    0.285E-01
DAV:   4    -0.181183604984E+02   -0.60892E-02   -0.19316E-03   120   0.128E-01    0.146E-01
DAV:   5    -0.181257449084E+02   -0.73844E-02   -0.10308E-03   160   0.710E-02    0.687E-02
DAV:   6    -0.181304465583E+02   -0.47016E-02   -0.40115E-04   140   0.401E-02    0.171E-02
DAV:   7    -0.181329750079E+02   -0.25284E-02   -0.42623E-05   140   0.186E-02    0.959E-03
DAV:   8    -0.181350674124E+02   -0.20924E-02   -0.52028E-05    80   0.151E-02    0.501E-03
DAV:   9    -0.181357459442E+02   -0.67853E-03   -0.37662E-05   160   0.111E-02    0.356E-03
DAV:  10    -0.181358698254E+02   -0.12388E-03   -0.21860E-05   100   0.714E-03    0.250E-03
DAV:  11    -0.181360230417E+02   -0.15322E-03   -0.14787E-05   120   0.637E-03    0.149E-03
DAV:  12    -0.181361634550E+02   -0.14041E-03   -0.56040E-06   160   0.457E-03    0.986E-04
DAV:  13    -0.181362515474E+02   -0.88092E-04   -0.19119E-06   140   0.285E-03
   3 F= -.18136252E+02 E0= -.18136252E+02  d E =-.263687E+00  mag=     1.0000
       N       E                     dE             d eps       ncg     rms          rms(c)
DAV:   1    -0.178190842307E+02    0.31708E+00   -0.23728E+01    80   0.172E+01    0.149E+00
DAV:   2    -0.180212406562E+02   -0.20216E+00   -0.83156E-01   120   0.270E+00    0.809E-01
DAV:   3    -0.180709739053E+02   -0.49733E-01   -0.32521E-02   140   0.594E-01    0.418E-01
DAV:   4    -0.180747243168E+02   -0.37504E-02   -0.11118E-02   100   0.290E-01    0.190E-01
DAV:   5    -0.180837260518E+02   -0.90017E-02   -0.18054E-03   160   0.121E-01    0.799E-02
DAV:   6    -0.180891757978E+02   -0.54497E-02   -0.34018E-04   140   0.431E-02    0.296E-02
DAV:   7    -0.180915694535E+02   -0.23937E-02   -0.37659E-05    80   0.177E-02    0.116E-02
DAV:   8    -0.180928787619E+02   -0.13093E-02   -0.18971E-05   140   0.110E-02    0.686E-03
DAV:   9    -0.180938238748E+02   -0.94511E-03   -0.22847E-05   100   0.102E-02    0.399E-03
DAV:  10    -0.180941666333E+02   -0.34276E-03   -0.27304E-05   120   0.883E-03    0.306E-03
DAV:  11    -0.180942982387E+02   -0.13161E-03   -0.25594E-05    80   0.839E-03    0.187E-03
DAV:  12    -0.180944237706E+02   -0.12553E-03   -0.54421E-06   160   0.434E-03    0.125E-03
DAV:  13    -0.180945368015E+02   -0.11303E-03   -0.32702E-06   100   0.320E-03    0.722E-04
DAV:  14    -0.180945859368E+02   -0.49135E-04   -0.78040E-07   160   0.169E-03
   4 F= -.18094586E+02 E0= -.18094586E+02  d E =0.416656E-01  mag=     1.0000
       N       E                     dE             d eps       ncg     rms          rms(c)
DAV:   1    -0.181327055978E+02   -0.38169E-01   -0.88460E+00    80   0.104E+01    0.952E-01
DAV:   2    -0.181298633743E+02    0.28422E-02   -0.14725E-01   140   0.126E+00    0.474E-01
DAV:   3    -0.181534280780E+02   -0.23565E-01   -0.95380E-03   100   0.355E-01    0.251E-01
DAV:   4    -0.181561119656E+02   -0.26839E-02   -0.32536E-03   160   0.170E-01    0.110E-01
DAV:   5    -0.181601702724E+02   -0.40583E-02   -0.65825E-04   120   0.780E-02    0.361E-02
DAV:   6    -0.181624333559E+02   -0.22631E-02   -0.51357E-05   120   0.208E-02    0.164E-02
DAV:   7    -0.181637330838E+02   -0.12997E-02   -0.20724E-05   120   0.138E-02    0.646E-03
DAV:   8    -0.181642365493E+02   -0.50347E-03   -0.90494E-06    80   0.774E-03    0.350E-03
DAV:   9    -0.181645918130E+02   -0.35526E-03   -0.85461E-06   140   0.516E-03    0.247E-03
DAV:  10    -0.181647518489E+02   -0.16004E-03   -0.14513E-05   100   0.601E-03    0.168E-03
DAV:  11    -0.181647882404E+02   -0.36391E-04   -0.61008E-06    80   0.432E-03
   5 F= -.18164788E+02 E0= -.18164788E+02  d E =-.285367E-01  mag=     1.0000
       N       E                     dE             d eps       ncg     rms          rms(c)
DAV:   1    -0.181528692201E+02    0.11883E-01   -0.66373E+00    80   0.892E+00    0.877E-01
DAV:   2    -0.181415952773E+02    0.11274E-01   -0.97221E-02   120   0.105E+00    0.449E-01
DAV:   3    -0.181627897604E+02   -0.21194E-01   -0.11103E-02   160   0.333E-01    0.224E-01
DAV:   4    -0.181652791251E+02   -0.24894E-02   -0.38343E-03   120   0.150E-01    0.108E-01
DAV:   5    -0.181678741566E+02   -0.25950E-02   -0.22318E-04   100   0.475E-02    0.527E-02
DAV:   6    -0.181701106043E+02   -0.22364E-02   -0.20751E-04   140   0.334E-02    0.164E-02
DAV:   7    -0.181706888421E+02   -0.57824E-03   -0.14492E-05    80   0.126E-02    0.651E-03
DAV:   8    -0.181712247795E+02   -0.53594E-03   -0.82312E-06   120   0.760E-03    0.393E-03
DAV:   9    -0.181716393713E+02   -0.41459E-03   -0.77276E-06   160   0.625E-03    0.217E-03
DAV:  10    -0.181717801749E+02   -0.14080E-03   -0.72768E-06    80   0.460E-03    0.174E-03
DAV:  11    -0.181718331395E+02   -0.52965E-04   -0.68625E-06   120   0.450E-03
   6 F= -.18171833E+02 E0= -.18171833E+02  d E =-.704490E-02  mag=     1.0000
       N       E                     dE             d eps       ncg     rms          rms(c)
DAV:   1    -0.181779091529E+02   -0.61290E-02   -0.12375E+00    80   0.387E+00    0.390E-01
DAV:   2    -0.181745044665E+02    0.34047E-02   -0.19584E-02   120   0.444E-01    0.184E-01
DAV:   3    -0.181786826140E+02   -0.41781E-02   -0.19170E-03   140   0.154E-01    0.961E-02
DAV:   4    -0.181795389507E+02   -0.85634E-03   -0.40171E-04    80   0.580E-02    0.451E-02
DAV:   5    -0.181803849331E+02   -0.84598E-03   -0.79579E-05   120   0.259E-02    0.195E-02
DAV:   6    -0.181810277932E+02   -0.64286E-03   -0.26375E-05    80   0.120E-02    0.635E-03
DAV:   7    -0.181812489501E+02   -0.22116E-03   -0.20942E-06   140   0.546E-03    0.296E-03
DAV:   8    -0.181813983595E+02   -0.14941E-03   -0.11884E-06    80   0.276E-03    0.172E-03
DAV:   9    -0.181815394860E+02   -0.14113E-03   -0.21025E-06   120   0.286E-03    0.963E-04
DAV:  10    -0.181815887430E+02   -0.49257E-04   -0.18743E-06   140   0.227E-03
   7 F= -.18181589E+02 E0= -.18181589E+02  d E =-.168005E-01  mag=     1.0000
       N       E                     dE             d eps       ncg     rms          rms(c)
DAV:   1    -0.181823504429E+02   -0.81096E-03   -0.38435E-01    80   0.212E+00    0.195E-01
DAV:   2    -0.181813414626E+02    0.10090E-02   -0.62477E-03   120   0.243E-01    0.850E-02
DAV:   3    -0.181830543961E+02   -0.17129E-02   -0.40283E-04   120   0.801E-02    0.373E-02
DAV:   4    -0.181833102270E+02   -0.25583E-03   -0.85525E-05   120   0.245E-02    0.186E-02
DAV:   5    -0.181836490918E+02   -0.33886E-03   -0.30749E-05    80   0.136E-02    0.703E-03
DAV:   6    -0.181839431240E+02   -0.29403E-03   -0.81865E-06   120   0.623E-03    0.312E-03
DAV:   7    -0.181841295647E+02   -0.18644E-03   -0.22864E-06   140   0.406E-03    0.135E-03
DAV:   8    -0.181842034214E+02   -0.73857E-04   -0.63369E-07   100   0.205E-03
   8 F= -.18184203E+02 E0= -.18184203E+02  d E =-.261468E-02  mag=     1.0000
       N       E                     dE             d eps       ncg     rms          rms(c)
DAV:   1    -0.181801481067E+02    0.39815E-02   -0.12217E+00    80   0.377E+00    0.350E-01
DAV:   2    -0.181775110236E+02    0.26371E-02   -0.19401E-02   140   0.436E-01    0.152E-01
DAV:   3    -0.181831050976E+02   -0.55941E-02   -0.12150E-03   120   0.139E-01    0.685E-02
DAV:   4    -0.181837529384E+02   -0.64784E-03   -0.26058E-04   140   0.407E-02    0.333E-02
DAV:   5    -0.181845493496E+02   -0.79641E-03   -0.93589E-05   100   0.220E-02    0.127E-02
DAV:   6    -0.181851629150E+02   -0.61357E-03   -0.22455E-05   140   0.922E-03    0.561E-03
DAV:   7    -0.181855467328E+02   -0.38382E-03   -0.40945E-06   120   0.521E-03    0.241E-03
DAV:   8    -0.181857247497E+02   -0.17802E-03   -0.23945E-06   100   0.325E-03    0.147E-03
DAV:   9    -0.181858310952E+02   -0.10635E-03   -0.38338E-06   140   0.335E-03    0.105E-03
DAV:  10    -0.181858635277E+02   -0.32433E-04   -0.46486E-06    80   0.347E-03
   9 F= -.18185864E+02 E0= -.18185864E+02  d E =-.427478E-02  mag=     1.0000
       N       E                     dE             d eps       ncg     rms          rms(c)
DAV:   1    -0.181824590719E+02    0.33720E-02   -0.54256E-01    80   0.256E+00    0.229E-01
DAV:   2    -0.181816922107E+02    0.76686E-03   -0.89952E-03   140   0.306E-01    0.110E-01
DAV:   3    -0.181836368270E+02   -0.19446E-02   -0.52605E-04   100   0.913E-02    0.547E-02
DAV:   4    -0.181838952482E+02   -0.25842E-03   -0.21356E-04   160   0.411E-02    0.257E-02
DAV:   5    -0.181842690938E+02   -0.37385E-03   -0.40321E-05   100   0.183E-02    0.901E-03
DAV:   6    -0.181845447802E+02   -0.27569E-03   -0.91480E-06   140   0.668E-03    0.395E-03
DAV:   7    -0.181846900624E+02   -0.14528E-03   -0.15285E-06   120   0.298E-03    0.177E-03
DAV:   8    -0.181847747582E+02   -0.84696E-04   -0.86759E-07   100   0.207E-03
  10 F= -.18184775E+02 E0= -.18184775E+02  d E =0.108877E-02  mag=     1.0000
       N       E                     dE             d eps       ncg     rms          rms(c)
DAV:   1    -0.181850105282E+02   -0.32047E-03   -0.25788E-01    80   0.177E+00    0.159E-01
DAV:   2    -0.181843448456E+02    0.66568E-03   -0.44138E-03   120   0.210E-01    0.751E-02
DAV:   3    -0.181853999827E+02   -0.10551E-02   -0.28999E-04   160   0.655E-02    0.372E-02
DAV:   4    -0.181855795897E+02   -0.17961E-03   -0.77252E-05   140   0.268E-02    0.173E-02
DAV:   5    -0.181858378006E+02   -0.25821E-03   -0.23851E-05   120   0.139E-02    0.584E-03
DAV:   6    -0.181860214942E+02   -0.18369E-03   -0.36614E-06   120   0.465E-03    0.253E-03
DAV:   7    -0.181861304130E+02   -0.10892E-03   -0.78363E-07   140   0.261E-03    0.106E-03
DAV:   8    -0.181861732430E+02   -0.42830E-04   -0.34192E-07   120   0.155E-03
  11 F= -.18186173E+02 E0= -.18186173E+02  d E =-.309715E-03  mag=     1.0000
       N       E                     dE             d eps       ncg     rms          rms(c)
DAV:   1    -0.181859711205E+02    0.15929E-03   -0.59413E-02   100   0.859E-01    0.952E-02
DAV:   2    -0.181856043182E+02    0.36680E-03   -0.94834E-04   140   0.988E-02    0.470E-02
DAV:   3    -0.181858006723E+02   -0.19635E-03   -0.15573E-04   120   0.399E-02    0.250E-02
DAV:   4    -0.181858972354E+02   -0.96563E-04   -0.25655E-05   140   0.171E-02
  12 F= -.18185897E+02 E0= -.18185897E+02  d E =0.276008E-03  mag=     1.0000
       N       E                     dE             d eps       ncg     rms          rms(c)
DAV:   1    -0.181862693482E+02   -0.46868E-03   -0.21894E-02   120   0.522E-01    0.569E-02
DAV:   2    -0.181861721535E+02    0.97195E-04   -0.41183E-04   160   0.603E-02
  13 F= -.18186172E+02 E0= -.18186172E+02  d E =0.108950E-05  mag=     1.0000
