    4    4    1    2
  0.3579343E+03  0.9481264E-09  0.9565245E-09  0.1578805E-08  0.5000000E-15
  1.000000000000000E-004
  CAR 
 unknown system                          
     29      8     20
 
  0.1250000E+00  0.1250000E+00  0.8673617E-18  0.1250000E+00
    1      -19.801574    -19.810218
    2      -19.625553    -19.633492
    3      -19.610359    -19.622806
    4       -9.371238     -9.270627
    5       -9.320922     -9.182600
    6       -9.306868     -9.172535
    7       -8.284375     -8.199065
    8       -8.266793     -8.184556
    9       -7.775255     -7.556975
   10       -7.460368     -7.415787
   11       -7.459648     -7.412409
   12       -6.920893     -6.972440
   13       -6.032881     -4.910239
   14       -5.189902     -4.908192
   15       -5.183766     -4.600611
   16       -4.388227     -4.121524
   17       -4.375536     -4.108653
   18       -1.172549     -0.897786
   19        0.067345      0.268433
   20        0.595097      0.654870
 
  0.3750000E+00  0.1250000E+00  0.1734723E-17  0.1250000E+00
    1      -19.801147    -19.809798
    2      -19.626203    -19.634143
    3      -19.610179    -19.622616
    4       -9.363708     -9.262621
    5       -9.330327     -9.192886
    6       -9.306029     -9.171285
    7       -8.278306     -8.191737
    8       -8.268710     -8.186697
    9       -7.771851     -7.553358
   10       -7.462465     -7.415571
   11       -7.454669     -7.411561
   12       -6.928939     -6.980445
   13       -6.031442     -4.911928
   14       -5.189331     -4.903954
   15       -5.182978     -4.599094
   16       -4.408597     -4.143083
   17       -4.384117     -4.117071
   18       -1.096955     -0.771646
   19        0.163175      0.234867
   20        0.440335      0.520110
 
 -0.3750000E+00  0.1250000E+00 -0.4336809E-18  0.1250000E+00
    1      -19.801146    -19.809798
    2      -19.626203    -19.634143
    3      -19.610179    -19.622616
    4       -9.363703     -9.262618
    5       -9.330337     -9.192896
    6       -9.306023     -9.171276
    7       -8.278312     -8.191758
    8       -8.268702     -8.186675
    9       -7.771851     -7.553358
   10       -7.462463     -7.415568
   11       -7.454669     -7.411561
   12       -6.928940     -6.980445
   13       -6.031441     -4.911933
   14       -5.189364     -4.903949
   15       -5.182946     -4.599094
   16       -4.408604     -4.143097
   17       -4.384114     -4.117062
   18       -1.096918     -0.771583
   19        0.163033      0.234556
   20        0.440486      0.520460
 
 -0.1250000E+00  0.1250000E+00 -0.1084202E-18  0.1250000E+00
    1      -19.801574    -19.810218
    2      -19.625553    -19.633492
    3      -19.610359    -19.622805
    4       -9.371235     -9.270625
    5       -9.320934     -9.182617
    6       -9.306858     -9.172519
    7       -8.284379     -8.199073
    8       -8.266788     -8.184548
    9       -7.775257     -7.556977
   10       -7.460357     -7.415783
   11       -7.459658     -7.412411
   12       -6.920894     -6.972441
   13       -6.032881     -4.910256
   14       -5.189935     -4.908173
   15       -5.183733     -4.600611
   16       -4.388228     -4.121538
   17       -4.375539     -4.108644
   18       -1.172516     -0.897738
   19        0.067298      0.268297
   20        0.595043      0.654752
 
  0.1250000E+00  0.3750000E+00  0.1734723E-17  0.1250000E+00
    1      -19.801476    -19.810119
    2      -19.625555    -19.633494
    3      -19.610465    -19.622914
    4       -9.370216     -9.269554
    5       -9.320754     -9.182534
    6       -9.309878     -9.175720
    7       -8.281784     -8.195491
    8       -8.267823     -8.185887
    9       -7.774165     -7.555813
   10       -7.460992     -7.416084
   11       -7.459439     -7.413290
   12       -6.917370     -6.968948
   13       -6.032242     -4.909995
   14       -5.188380     -4.908784
   15       -5.184478     -4.599966
   16       -4.401496     -4.133513
   17       -4.375477     -4.108421
   18       -1.106316     -0.781839
   19        0.135537      0.205004
   20        0.457984      0.540998
 
  0.3750000E+00  0.3750000E+00  0.1734723E-17  0.1250000E+00
    1      -19.801046    -19.809695
    2      -19.626200    -19.634141
    3      -19.610282    -19.622722
    4       -9.362689     -9.261567
    5       -9.330125     -9.192689
    6       -9.309033     -9.174537
    7       -8.275771     -8.189285
    8       -8.269710     -8.186941
    9       -7.770770     -7.552206
   10       -7.463673     -7.416465
   11       -7.453874     -7.411838
   12       -6.925408     -6.976937
   13       -6.030808     -4.913459
   14       -5.190355     -4.902761
   15       -5.181110     -4.598462
   16       -4.408254     -4.142545
   17       -4.397198     -4.128796
   18       -1.041136     -0.669004
   19        0.263032      0.306391
   20        0.466422      0.477106
 
 -0.3750000E+00  0.3750000E+00  0.8673617E-18  0.1250000E+00
    1      -19.801047    -19.809696
    2      -19.626201    -19.634142
    3      -19.610282    -19.622722
    4       -9.362685     -9.261565
    5       -9.330138     -9.192702
    6       -9.309025     -9.174526
    7       -8.275783     -8.189331
    8       -8.269697     -8.186894
    9       -7.770773     -7.552210
   10       -7.463677     -7.416468
   11       -7.453873     -7.411839
   12       -6.925409     -6.976939
   13       -6.030809     -4.913462
   14       -5.190377     -4.902758
   15       -5.181088     -4.598463
   16       -4.408272     -4.142574
   17       -4.397184     -4.128772
   18       -1.041094     -0.668916
   19        0.262945      0.305550
   20        0.466013      0.477793
 
 -0.1250000E+00  0.3750000E+00  0.6505213E-18  0.1250000E+00
    1      -19.801476    -19.810119
    2      -19.625555    -19.633494
    3      -19.610465    -19.622913
    4       -9.370212     -9.269552
    5       -9.320768     -9.182559
    6       -9.309865     -9.175696
    7       -8.281789     -8.195502
    8       -8.267817     -8.185874
    9       -7.774165     -7.555814
   10       -7.460984     -7.416080
   11       -7.459442     -7.413291
   12       -6.917370     -6.968948
   13       -6.032242     -4.910024
   14       -5.188431     -4.908753
   15       -5.184425     -4.599965
   16       -4.401499     -4.133524
   17       -4.375477     -4.108414
   18       -1.106278     -0.781773
   19        0.135465      0.204771
   20        0.457862      0.541072
