       N       E                     dE             d eps       ncg     rms          rms(c)
DAV:   1     0.191469941145E+03    0.19147E+03   -0.61430E+03   776   0.684E+02
DAV:   2     0.372775471290E+02   -0.15419E+03   -0.15004E+03  1048   0.125E+02
DAV:   3    -0.112754852140E+02   -0.48553E+02   -0.47959E+02   932   0.782E+01
DAV:   4    -0.132135487213E+02   -0.19381E+01   -0.18355E+01   652   0.178E+01
DAV:   5    -0.132576538130E+02   -0.44105E-01   -0.43711E-01   792   0.253E+00    0.144E+01
DAV:   6    -0.894776952152E+01    0.43099E+01   -0.98857E+00   668   0.202E+01    0.736E+00
DAV:   7    -0.941976110420E+01   -0.47199E+00   -0.41679E+00   668   0.195E+01    0.609E+00
DAV:   8    -0.104792893814E+02   -0.10595E+01   -0.94869E-01   704   0.707E+00    0.268E+00
DAV:   9    -0.111674487534E+02   -0.68816E+00   -0.25702E-01   656   0.279E+00    0.261E+00
DAV:  10    -0.112407605003E+02   -0.73312E-01   -0.17708E-02   772   0.773E-01    0.244E+00
DAV:  11    -0.117597830963E+02   -0.51902E+00   -0.14948E-01   664   0.178E+00    0.154E+00
DAV:  12    -0.121143388368E+02   -0.35456E+00   -0.69368E-02   708   0.136E+00    0.105E+00
DAV:  13    -0.124242805891E+02   -0.30994E+00   -0.60330E-02   656   0.115E+00    0.699E-01
DAV:  14    -0.125648358376E+02   -0.14056E+00   -0.24623E-02   748   0.706E-01    0.481E-01
DAV:  15    -0.126771979429E+02   -0.11236E+00   -0.24189E-02   704   0.689E-01    0.192E-01
DAV:  16    -0.127505516616E+02   -0.73354E-01   -0.10736E-02   736   0.433E-01    0.830E-02
DAV:  17    -0.127695261983E+02   -0.18975E-01   -0.18352E-03   696   0.192E-01    0.458E-02
DAV:  18    -0.127762201018E+02   -0.66939E-02   -0.24494E-04   536   0.771E-02    0.317E-02
DAV:  19    -0.127901578282E+02   -0.13938E-01   -0.12639E-03   680   0.130E-01    0.211E-02
DAV:  20    -0.127945586201E+02   -0.44008E-02   -0.48807E-04   616   0.759E-02    0.118E-02
DAV:  21    -0.127953296816E+02   -0.77106E-03   -0.11600E-04   512   0.381E-02    0.984E-03
DAV:  22    -0.127954299500E+02   -0.10027E-03   -0.64891E-05   440   0.287E-02
   1 F= -.12795430E+02 E0= -.12795428E+02  d E =-.295419E-05  mag=     0.9975
