    2    2  800    2
  0.1687500E+04  0.1500000E-08  0.1500000E-08  0.1500000E-08  0.5000000E-15
  1.000000000000000E-004
  CAR 
 unknown system                          
      7      1      8
 
  0.0000000E+00  0.0000000E+00  0.0000000E+00  0.1000000E+01
    1      -25.420162    -23.819232
    2      -11.625487    -10.968059
    3       -9.967503     -7.309738
    4       -7.964566     -6.443419
    5       -0.832711     -0.710961
    6        0.104432      0.116741
    7        0.498762      0.520784
    8        0.584108      0.550526
