       N       E                     dE             d eps       ncg     rms          rms(c)
DAV:   1     0.639734779357E+02    0.63973E+02   -0.10797E+03    48   0.272E+02
DAV:   2     0.142442761637E+02   -0.49729E+02   -0.49561E+02    64   0.726E+01
DAV:   3    -0.563035405640E+01   -0.19875E+02   -0.18319E+02    32   0.623E+01
DAV:   4    -0.659283271518E+01   -0.96248E+00   -0.95009E+00    32   0.201E+01
DAV:   5    -0.660421370348E+01   -0.11381E-01   -0.11375E-01    32   0.173E+00    0.698E+00
DAV:   6    -0.469763247137E+01    0.19066E+01   -0.64897E+00    40   0.173E+01    0.323E+00
DAV:   7    -0.620368651663E+01   -0.15061E+01   -0.75108E-01    48   0.552E+00    0.306E+00
DAV:   8    -0.648040714008E+01   -0.27672E+00   -0.57022E-02    32   0.216E+00    0.446E+00
DAV:   9    -0.624566872247E+01    0.23474E+00   -0.45453E-02    48   0.215E+00    0.496E+00
DAV:  10    -0.637961516032E+01   -0.13395E+00   -0.32011E-02    64   0.166E+00    0.427E+00
DAV:  11    -0.682856583903E+01   -0.44895E+00   -0.11386E+00    32   0.954E+00    0.269E+00
DAV:  12    -0.733414897332E+01   -0.50558E+00   -0.12990E-01    32   0.297E+00    0.137E+00
DAV:  13    -0.746789773154E+01   -0.13375E+00   -0.25745E-02    48   0.139E+00    0.608E-01
DAV:  14    -0.755638464781E+01   -0.88487E-01   -0.18721E-03    32   0.368E-01    0.443E-01
DAV:  15    -0.768213181666E+01   -0.12575E+00   -0.59491E-03    40   0.583E-01    0.160E-01
DAV:  16    -0.771020053631E+01   -0.28069E-01   -0.26337E-03    32   0.361E-01    0.204E-01
DAV:  17    -0.771209540442E+01   -0.18949E-02   -0.83853E-04    40   0.250E-01    0.104E-01
DAV:  18    -0.771459603479E+01   -0.25006E-02   -0.12923E-03    32   0.340E-01    0.987E-02
DAV:  19    -0.771727002222E+01   -0.26740E-02   -0.10659E-04    48   0.824E-02    0.761E-02
DAV:  20    -0.771930100096E+01   -0.20310E-02   -0.11392E-04    32   0.640E-02    0.630E-02
DAV:  21    -0.772022062733E+01   -0.91963E-03   -0.11779E-04    40   0.949E-02    0.155E-02
DAV:  22    -0.772037041279E+01   -0.14979E-03   -0.11642E-05    40   0.253E-02    0.677E-03
DAV:  23    -0.772048702881E+01   -0.11662E-03   -0.54797E-06    48   0.221E-02    0.442E-03
DAV:  24    -0.772054135473E+01   -0.54326E-04   -0.79700E-07    56   0.703E-03
   1 F= -.77205414E+01 E0= -.77205414E+01  d E =-.772054E+01  mag=     1.0002
       N       E                     dE             d eps       ncg     rms          rms(c)
DAV:   1    -0.764400723551E+01    0.76480E-01   -0.86151E+00    32   0.285E+01    0.119E+00
DAV:   2    -0.764466385954E+01   -0.65662E-03   -0.20487E-01    48   0.401E+00    0.499E-01
DAV:   3    -0.765967288533E+01   -0.15009E-01   -0.50013E-03    56   0.752E-01    0.254E-01
DAV:   4    -0.766182817771E+01   -0.21553E-02   -0.15044E-03    40   0.395E-01    0.987E-02
DAV:   5    -0.766390226995E+01   -0.20741E-02   -0.37894E-04    64   0.193E-01    0.258E-02
DAV:   6    -0.766442737686E+01   -0.52511E-03   -0.27833E-05    32   0.537E-02    0.135E-02
DAV:   7    -0.766475228282E+01   -0.32491E-03   -0.13689E-05    48   0.336E-02    0.499E-03
DAV:   8    -0.766486573144E+01   -0.11345E-03   -0.35526E-06    64   0.150E-02    0.341E-03
DAV:   9    -0.766490850907E+01   -0.42778E-04   -0.76130E-07    48   0.563E-03
   2 F= -.76649085E+01 E0= -.76649085E+01  d E =0.556328E-01  mag=     1.0000
       N       E                     dE             d eps       ncg     rms          rms(c)
DAV:   1    -0.771338810662E+01   -0.48522E-01   -0.52142E+00    32   0.220E+01    0.877E-01
DAV:   2    -0.771308055357E+01    0.30755E-03   -0.98191E-02    40   0.290E+00    0.410E-01
DAV:   3    -0.772282657811E+01   -0.97460E-02   -0.46490E-03    64   0.645E-01    0.201E-01
DAV:   4    -0.772438002836E+01   -0.15535E-02   -0.12661E-03    32   0.335E-01    0.740E-02
DAV:   5    -0.772555557408E+01   -0.11755E-02   -0.20687E-04    64   0.141E-01    0.294E-02
DAV:   6    -0.772599169750E+01   -0.43612E-03   -0.23378E-05    32   0.570E-02    0.104E-02
DAV:   7    -0.772612429833E+01   -0.13260E-03   -0.62628E-06    56   0.228E-02    0.774E-03
DAV:   8    -0.772621038984E+01   -0.86092E-04   -0.41053E-06    48   0.142E-02
   3 F= -.77262104E+01 E0= -.77262104E+01  d E =-.566904E-02  mag=     1.0000
