    2    2  800    2
  0.1687500E+04  0.1500000E-08  0.1500000E-08  0.1500000E-08  0.5000000E-15
  1.000000000000000E-004
  CAR 
 unknown system                          
     14      1     12
 
  0.0000000E+00  0.0000000E+00  0.0000000E+00  0.1000000E+01
    1      -23.449705    -23.449704
    2      -19.189234    -19.189233
    3      -11.885258    -11.885258
    4       -9.853513     -9.853511
    5       -9.853509     -9.853509
    6       -7.189129     -7.189127
    7       -7.189126     -7.189125
    8       -4.166856     -4.166854
    9       -0.384074     -0.384084
   10        0.271180      0.271271
   11        0.456161      0.456102
   12        0.492235      0.492386
