       N       E                     dE             d eps       ncg     rms          rms(c)
DAV:   1     0.819616247571E+02    0.81962E+02   -0.24862E+03    80   0.422E+02
DAV:   2     0.207557863844E+02   -0.61206E+02   -0.59230E+02    88   0.961E+01
DAV:   3     0.390477697375E+00   -0.20365E+02   -0.16354E+02    72   0.485E+01
DAV:   4    -0.299136114567E+01   -0.33818E+01   -0.33810E+01    56   0.165E+01
DAV:   5    -0.305771395476E+01   -0.66353E-01   -0.66351E-01    80   0.273E+00    0.168E+01
DAV:   6     0.727965831679E+00    0.37857E+01   -0.51066E+00    56   0.103E+01    0.104E+01
DAV:   7    -0.207184344178E+01   -0.27998E+01   -0.21791E+00    64   0.707E+00    0.268E+00
DAV:   8    -0.285441815436E+01   -0.78257E+00   -0.29864E-01    56   0.344E+00    0.109E+00
DAV:   9    -0.295669998979E+01   -0.10228E+00   -0.14298E-02    64   0.977E-01    0.336E-01
DAV:  10    -0.303155698867E+01   -0.74857E-01   -0.89653E-03    48   0.645E-01    0.199E-01
DAV:  11    -0.309534865205E+01   -0.63792E-01   -0.39355E-03    64   0.317E-01    0.145E-01
DAV:  12    -0.317993648368E+01   -0.84588E-01   -0.65460E-03    64   0.374E-01    0.688E-02
DAV:  13    -0.327542829480E+01   -0.95492E-01   -0.31836E-03    68   0.225E-01    0.229E-02
DAV:  14    -0.328510187833E+01   -0.96736E-02   -0.22231E-04    68   0.684E-02    0.158E-02
DAV:  15    -0.329425897475E+01   -0.91571E-02   -0.57749E-04    68   0.814E-02    0.988E-03
DAV:  16    -0.329509940457E+01   -0.84043E-03   -0.25508E-05    80   0.242E-02    0.741E-03
DAV:  17    -0.329481721979E+01    0.28218E-03   -0.10199E-05    64   0.130E-02    0.279E-03
DAV:  18    -0.329492785980E+01   -0.11064E-03   -0.27815E-06    48   0.910E-03    0.235E-03
DAV:  19    -0.329546736519E+01   -0.53951E-03   -0.17381E-05    64   0.149E-02    0.174E-03
DAV:  20    -0.329550756855E+01   -0.40203E-04   -0.15458E-06    44   0.478E-03
   1 F= -.32955076E+01 E0= -.32955076E+01  d E =-.329551E+01  mag=     0.0001
       N       E                     dE             d eps       ncg     rms          rms(c)
DAV:   1    -0.268723690298E+01    0.60823E+00   -0.17691E+02    48   0.752E+01    0.142E+01
DAV:   2    -0.319360908830E+01   -0.50637E+00   -0.57705E+00    56   0.187E+01    0.534E+00
DAV:   3    -0.317109184997E+01    0.22517E-01   -0.11935E-01    80   0.240E+00    0.255E+00
DAV:   4    -0.317417597330E+01   -0.30841E-02   -0.47562E-02    48   0.129E+00    0.366E-01
DAV:   5    -0.317156660116E+01    0.26094E-02   -0.14980E-02    56   0.666E-01    0.476E-01
DAV:   6    -0.317188490227E+01   -0.31830E-03   -0.88578E-04    48   0.215E-01    0.113E-01
DAV:   7    -0.317215424452E+01   -0.26934E-03   -0.26190E-05    32   0.388E-02    0.545E-02
DAV:   8    -0.317245303837E+01   -0.29879E-03   -0.10107E-04    32   0.583E-02    0.289E-02
DAV:   9    -0.317279440060E+01   -0.34136E-03   -0.29506E-05    32   0.362E-02    0.297E-02
DAV:  10    -0.317302486195E+01   -0.23046E-03   -0.18240E-05    32   0.220E-02    0.664E-03
DAV:  11    -0.317320519882E+01   -0.18034E-03   -0.32667E-05    48   0.227E-02    0.109E-02
DAV:  12    -0.317324070428E+01   -0.35505E-04   -0.15418E-06    36   0.715E-03
   2 F= -.31732407E+01 E0= -.31732407E+01  d E =0.122267E+00  mag=    -0.0000
       N       E                     dE             d eps       ncg     rms          rms(c)
DAV:   1    -0.336896098264E+01   -0.19576E+00   -0.64290E+01    48   0.431E+01    0.114E+01
DAV:   2    -0.358779787685E+01   -0.21884E+00   -0.21753E+00    56   0.115E+01    0.165E+00
DAV:   3    -0.357588232633E+01    0.11916E-01   -0.43866E-02    48   0.152E+00    0.103E+00
DAV:   4    -0.357648623068E+01   -0.60390E-03   -0.56542E-02    56   0.136E+00    0.330E-01
DAV:   5    -0.357547988202E+01    0.10063E-02   -0.31489E-03    56   0.400E-01    0.272E-01
DAV:   6    -0.357446323056E+01    0.10167E-02   -0.41264E-03    52   0.339E-01    0.129E-01
DAV:   7    -0.357455723659E+01   -0.94006E-04   -0.15681E-03    52   0.222E-01    0.600E-02
DAV:   8    -0.357462782230E+01   -0.70586E-04   -0.16691E-04    44   0.826E-02
   3 F= -.35746278E+01 E0= -.35746278E+01  d E =-.279120E+00  mag=    -0.0000
       N       E                     dE             d eps       ncg     rms          rms(c)
DAV:   1    -0.357492030086E+01   -0.36306E-03   -0.12554E-02    52   0.612E-01    0.185E-01
DAV:   2    -0.357501164377E+01   -0.91343E-04   -0.41287E-04    60   0.158E-01
   4 F= -.35750116E+01 E0= -.35750116E+01  d E =-.279504E+00  mag=    -0.0000
