    1    1  800    1
  0.3375000E+04  0.1500000E-08  0.1500000E-08  0.1500000E-08  0.5000000E-15
  1.000000000000000E-004
  CAR 
 unknown system                          
      7      1      8
 
  0.0000000E+00  0.0000000E+00  0.0000000E+00  0.1000000E+01
    1      -20.637685
    2       -8.540291
    3       -8.539449
    4       -8.538531
    5       -0.334614
    6        0.278654
    7        0.546770
    8        0.549196
