       N       E                     dE             d eps       ncg     rms          rms(c)
DAV:   1     0.531848313007E+02    0.53185E+02   -0.99370E+02    24   0.293E+02
DAV:   2     0.135414100085E+02   -0.39643E+02   -0.39643E+02    32   0.538E+01
DAV:   3     0.768643929050E+00   -0.12773E+02   -0.12773E+02    16   0.478E+01
DAV:   4    -0.609608687388E-01   -0.82960E+00   -0.80700E+00    16   0.145E+01
DAV:   5    -0.715255080582E-01   -0.10565E-01   -0.10510E-01    16   0.165E+00    0.806E-02
DAV:   6    -0.717694220282E-01   -0.24391E-03   -0.26983E-03    32   0.319E-01    0.610E-02
DAV:   7    -0.718105769947E-01   -0.41155E-04   -0.18057E-04    32   0.286E-02
   1 F= -.71810577E-01 E0= -.45315360E-01  d E =-.718106E-01
