       N       E                     dE             d eps       ncg     rms          rms(c)
DAV:   1     0.157567544388E+03    0.15757E+03   -0.48075E+03   720   0.611E+02
DAV:   2     0.337180383059E+02   -0.12385E+03   -0.11563E+03  1128   0.103E+02
DAV:   3    -0.862574459674E+01   -0.42344E+02   -0.41451E+02   904   0.690E+01
DAV:   4    -0.108579923183E+02   -0.22322E+01   -0.22188E+01   732   0.197E+01
DAV:   5    -0.108886574509E+02   -0.30665E-01   -0.30647E-01   844   0.254E+00    0.143E+01
RMM:   6    -0.908348782453E+01    0.18052E+01   -0.39568E+00   640   0.857E+00    0.797E+00
RMM:   7    -0.982918657734E+01   -0.74570E+00   -0.89550E-01   640   0.413E+00    0.102E+01
RMM:   8    -0.104268276895E+02   -0.59764E+00   -0.45049E-01   640   0.288E+00    0.781E+00
RMM:   9    -0.101558838076E+02    0.27094E+00   -0.57270E-01   640   0.281E+00    0.515E+00
RMM:  10    -0.960316267025E+01    0.55272E+00   -0.29870E-01   640   0.231E+00    0.313E+00
RMM:  11    -0.971610368973E+01   -0.11294E+00   -0.82721E-02   640   0.142E+00    0.232E+00
RMM:  12    -0.972833615689E+01   -0.12232E-01   -0.34901E-02   640   0.906E-01    0.158E+00
RMM:  13    -0.100644401502E+02   -0.33610E+00   -0.75572E-02   640   0.114E+00    0.110E+00
RMM:  14    -0.103164235991E+02   -0.25198E+00   -0.50587E-02   640   0.992E-01    0.844E-01
RMM:  15    -0.103889447605E+02   -0.72521E-01   -0.93049E-03   632   0.391E-01    0.753E-01
RMM:  16    -0.105219247411E+02   -0.13298E+00   -0.25315E-02   640   0.619E-01    0.443E-01
RMM:  17    -0.105956590406E+02   -0.73734E-01   -0.87339E-03   608   0.350E-01    0.292E-01
RMM:  18    -0.106548946721E+02   -0.59236E-01   -0.45516E-03   608   0.267E-01    0.139E-01
RMM:  19    -0.107131446517E+02   -0.58250E-01   -0.37500E-03   608   0.233E-01    0.773E-02
RMM:  20    -0.107708400841E+02   -0.57695E-01   -0.86929E-03   609   0.260E-01    0.938E-02
RMM:  21    -0.107743744458E+02   -0.35344E-02   -0.16684E-03   550   0.110E-01    0.465E-02
RMM:  22    -0.107750731257E+02   -0.69868E-03   -0.46151E-04   513   0.692E-02    0.215E-02
RMM:  23    -0.107748389444E+02    0.23418E-03   -0.16726E-04   456   0.517E-02    0.207E-02
RMM:  24    -0.107753846804E+02   -0.54574E-03   -0.49223E-05   408   0.316E-02    0.100E-02
RMM:  25    -0.107755532613E+02   -0.16858E-03   -0.34743E-05   410   0.247E-02
   1 F= -.10775553E+02 E0= -.10780071E+02  d E =-.107756E+02  mag=     4.0705
       N       E                     dE             d eps       ncg     rms          rms(c)
DAV:   1    -0.116339487016E+02   -0.85856E+00   -0.59240E+01   756   0.419E+01    0.816E+00
RMM:   2    -0.108483112089E+02    0.78564E+00   -0.27490E+00   640   0.927E+00    0.452E+00
RMM:   3    -0.107225725111E+02    0.12574E+00   -0.47929E-01   640   0.351E+00    0.308E+00
RMM:   4    -0.107008633137E+02    0.21709E-01   -0.11355E-01   640   0.161E+00    0.183E+00
RMM:   5    -0.106879079147E+02    0.12955E-01   -0.20875E-02   640   0.766E-01    0.722E-01
RMM:   6    -0.106915564818E+02   -0.36486E-02   -0.38045E-03   640   0.348E-01    0.288E-01
RMM:   7    -0.106964740854E+02   -0.49176E-02   -0.15322E-03   597   0.197E-01    0.297E-01
RMM:   8    -0.106966769753E+02   -0.20289E-03   -0.33071E-04   472   0.965E-02    0.227E-01
RMM:   9    -0.106973103858E+02   -0.63341E-03   -0.77010E-04   531   0.135E-01    0.721E-02
RMM:  10    -0.106985475822E+02   -0.12372E-02   -0.25338E-04   478   0.682E-02    0.327E-02
RMM:  11    -0.106993514549E+02   -0.80387E-03   -0.10366E-04   440   0.436E-02    0.174E-02
RMM:  12    -0.106999739516E+02   -0.62250E-03   -0.75591E-05   432   0.338E-02    0.114E-02
RMM:  13    -0.107003806850E+02   -0.40673E-03   -0.45780E-05   392   0.250E-02    0.834E-03
RMM:  14    -0.107008001514E+02   -0.41947E-03   -0.62087E-05   424   0.304E-02    0.637E-03
RMM:  15    -0.107009218103E+02   -0.12166E-03   -0.15018E-05   323   0.176E-02
   2 F= -.10700922E+02 E0= -.10704390E+02  d E =0.746315E-01  mag=     3.9995
       N       E                     dE             d eps       ncg     rms          rms(c)
DAV:   1    -0.112009182264E+02   -0.50012E+00   -0.20475E+01   752   0.241E+01    0.576E+00
RMM:   2    -0.108145408723E+02    0.38638E+00   -0.12325E+00   640   0.586E+00    0.249E+00
RMM:   3    -0.108701859208E+02   -0.55645E-01   -0.20794E-01   640   0.246E+00    0.166E+00
RMM:   4    -0.108732962733E+02   -0.31104E-02   -0.29920E-02   640   0.789E-01    0.110E+00
RMM:   5    -0.108748694956E+02   -0.15732E-02   -0.75845E-03   640   0.460E-01    0.702E-01
RMM:   6    -0.108731179174E+02    0.17516E-02   -0.53672E-03   640   0.361E-01    0.280E-01
RMM:   7    -0.108767466691E+02   -0.36288E-02   -0.14543E-03   640   0.191E-01    0.300E-01
RMM:   8    -0.108769737762E+02   -0.22711E-03   -0.10137E-03   557   0.162E-01    0.147E-01
RMM:   9    -0.108771322769E+02   -0.15850E-03   -0.49783E-04   504   0.108E-01
   3 F= -.10877132E+02 E0= -.10880298E+02  d E =-.101579E+00  mag=     4.0043
       N       E                     dE             d eps       ncg     rms          rms(c)
DAV:   1    -0.108779074968E+02   -0.93372E-03   -0.16175E-02   748   0.684E-01    0.157E-01
RMM:   2    -0.108779029064E+02    0.45904E-05   -0.83238E-04   592   0.157E-01
   4 F= -.10877903E+02 E0= -.10881113E+02  d E =-.102350E+00  mag=     4.0050
       N       E                     dE             d eps       ncg     rms          rms(c)
DAV:   1    -0.108848909146E+02   -0.69834E-02   -0.93562E-01   752   0.519E+00    0.125E+00
RMM:   2    -0.108697481672E+02    0.15143E-01   -0.48761E-02   640   0.120E+00    0.608E-01
RMM:   3    -0.108679901439E+02    0.17580E-02   -0.86572E-03   640   0.484E-01    0.409E-01
RMM:   4    -0.108687223696E+02   -0.73223E-03   -0.16430E-03   640   0.193E-01    0.233E-01
RMM:   5    -0.108690199485E+02   -0.29758E-03   -0.35948E-04   472   0.106E-01    0.134E-01
RMM:   6    -0.108691688608E+02   -0.14891E-03   -0.17271E-04   456   0.728E-02
   5 F= -.10869169E+02 E0= -.10872733E+02  d E =-.936156E-01  mag=     4.0138
       N       E                     dE             d eps       ncg     rms          rms(c)
DAV:   1    -0.108894724652E+02   -0.20453E-01   -0.73332E-01   744   0.463E+00    0.103E+00
RMM:   2    -0.108800733959E+02    0.93991E-02   -0.35437E-02   640   0.103E+00    0.506E-01
RMM:   3    -0.108786947868E+02    0.13786E-02   -0.59980E-03   640   0.400E-01    0.343E-01
RMM:   4    -0.108786509268E+02    0.43860E-04   -0.11836E-03   640   0.166E-01
   6 F= -.10878651E+02 E0= -.10881822E+02  d E =-.103098E+00  mag=     4.0120
       N       E                     dE             d eps       ncg     rms          rms(c)
DAV:   1    -0.108787292573E+02   -0.34470E-04   -0.36438E-03   732   0.333E-01    0.131E-01
RMM:   2    -0.108786913701E+02    0.37887E-04   -0.19365E-04   439   0.848E-02
   7 F= -.10878691E+02 E0= -.10881854E+02  d E =-.103138E+00  mag=     4.0103
       N       E                     dE             d eps       ncg     rms          rms(c)
DAV:   1    -0.108787416210E+02   -0.12364E-04   -0.66668E-04   736   0.123E-01    0.788E-02
RMM:   2    -0.108787089422E+02    0.32679E-04   -0.59389E-05   419   0.446E-02
   8 F= -.10878709E+02 E0= -.10881906E+02  d E =-.103156E+00  mag=     4.0089
       N       E                     dE             d eps       ncg     rms          rms(c)
DAV:   1    -0.109251931955E+02   -0.46452E-01   -0.54652E+00   640   0.113E+01    0.127E+00
RMM:   2    -0.109086366743E+02    0.16557E-01   -0.17183E-01   640   0.245E+00    0.722E-01
RMM:   3    -0.109198424907E+02   -0.11206E-01   -0.15333E-02   640   0.673E-01    0.378E-01
RMM:   4    -0.109232530919E+02   -0.34106E-02   -0.51943E-03   640   0.348E-01    0.194E-01
RMM:   5    -0.109261607518E+02   -0.29077E-02   -0.15761E-03   640   0.187E-01    0.116E-01
RMM:   6    -0.109273827840E+02   -0.12220E-02   -0.27438E-04   478   0.846E-02    0.619E-02
RMM:   7    -0.109281797649E+02   -0.79698E-03   -0.15719E-04   456   0.632E-02    0.560E-02
RMM:   8    -0.109284893448E+02   -0.30958E-03   -0.66718E-05   456   0.421E-02    0.305E-02
RMM:   9    -0.109289710997E+02   -0.48175E-03   -0.50787E-05   456   0.316E-02    0.151E-02
RMM:  10    -0.109294183715E+02   -0.44727E-03   -0.32466E-05   386   0.220E-02    0.786E-03
RMM:  11    -0.109296607126E+02   -0.24234E-03   -0.20247E-05   363   0.182E-02    0.423E-03
RMM:  12    -0.109298904100E+02   -0.22970E-03   -0.24968E-05   374   0.182E-02    0.302E-03
RMM:  13    -0.109300370267E+02   -0.14662E-03   -0.16569E-05   329   0.166E-02
   9 F= -.10930037E+02 E0= -.10932934E+02  d E =-.513281E-01  mag=     4.0034
       N       E                     dE             d eps       ncg     rms          rms(c)
DAV:   1    -0.108152192568E+02    0.11467E+00   -0.49352E+01   640   0.339E+01    0.386E+00
RMM:   2    -0.108252056566E+02   -0.99864E-02   -0.16554E+00   640   0.751E+00    0.224E+00
RMM:   3    -0.109811582463E+02   -0.15595E+00   -0.16895E-01   640   0.212E+00    0.120E+00
RMM:   4    -0.110086092624E+02   -0.27451E-01   -0.51489E-02   640   0.109E+00    0.657E-01
RMM:   5    -0.110359745469E+02   -0.27365E-01   -0.38803E-02   640   0.907E-01    0.294E-01
RMM:   6    -0.110421167955E+02   -0.61422E-02   -0.38401E-03   640   0.272E-01    0.149E-01
RMM:   7    -0.110465625232E+02   -0.44457E-02   -0.10890E-03   534   0.125E-01    0.119E-01
RMM:   8    -0.110477389221E+02   -0.11764E-02   -0.21060E-04   472   0.724E-02    0.791E-02
RMM:   9    -0.110496816033E+02   -0.19427E-02   -0.24101E-04   480   0.695E-02    0.443E-02
RMM:  10    -0.110515323670E+02   -0.18508E-02   -0.25851E-04   480   0.629E-02    0.195E-02
RMM:  11    -0.110524880106E+02   -0.95564E-03   -0.10650E-04   440   0.374E-02    0.127E-02
RMM:  12    -0.110533515872E+02   -0.86358E-03   -0.12087E-04   444   0.342E-02    0.942E-03
RMM:  13    -0.110541576795E+02   -0.80609E-03   -0.19753E-04   452   0.402E-02    0.523E-03
RMM:  14    -0.110542664726E+02   -0.10879E-03   -0.25822E-05   349   0.184E-02
  10 F= -.11054266E+02 E0= -.11056592E+02  d E =-.175558E+00  mag=     4.0002
       N       E                     dE             d eps       ncg     rms          rms(c)
DAV:   1    -0.944963368922E+01    0.16045E+01   -0.20932E+02   640   0.706E+01    0.856E+00
RMM:   2    -0.102241328830E+02   -0.77450E+00   -0.73356E+00   640   0.155E+01    0.486E+00
RMM:   3    -0.107991345828E+02   -0.57500E+00   -0.65627E-01   640   0.412E+00    0.275E+00
RMM:   4    -0.108861498670E+02   -0.87015E-01   -0.18176E-01   640   0.200E+00    0.174E+00
RMM:   5    -0.110021034479E+02   -0.11595E+00   -0.27229E-01   640   0.219E+00    0.840E-01
RMM:   6    -0.110172457059E+02   -0.15142E-01   -0.38774E-02   640   0.780E-01    0.418E-01
RMM:   7    -0.110271067459E+02   -0.98610E-02   -0.96161E-03   640   0.396E-01    0.324E-01
RMM:   8    -0.110308627086E+02   -0.37560E-02   -0.14612E-03   568   0.179E-01    0.214E-01
RMM:   9    -0.110334270548E+02   -0.25643E-02   -0.12560E-03   560   0.175E-01    0.101E-01
RMM:  10    -0.110373709709E+02   -0.39439E-02   -0.56166E-04   514   0.101E-01    0.632E-02
RMM:  11    -0.110408894470E+02   -0.35185E-02   -0.84084E-04   536   0.116E-01    0.325E-02
RMM:  12    -0.110423421121E+02   -0.14527E-02   -0.21492E-04   472   0.537E-02    0.212E-02
RMM:  13    -0.110443209516E+02   -0.19788E-02   -0.59999E-04   502   0.744E-02    0.144E-02
RMM:  14    -0.110446548469E+02   -0.33390E-03   -0.96421E-05   417   0.332E-02    0.736E-03
RMM:  15    -0.110450252078E+02   -0.37036E-03   -0.95354E-05   403   0.299E-02    0.475E-03
RMM:  16    -0.110451527382E+02   -0.12753E-03   -0.31793E-05   371   0.202E-02
  11 F= -.11045153E+02 E0= -.11047135E+02  d E =-.166444E+00  mag=     4.0000
       N       E                     dE             d eps       ncg     rms          rms(c)
DAV:   1    -0.110960990211E+02   -0.51074E-01   -0.87886E+01   676   0.460E+01    0.651E+00
RMM:   2    -0.111652319190E+02   -0.69133E-01   -0.30996E+00   640   0.105E+01    0.405E+00
RMM:   3    -0.111045829025E+02    0.60649E-01   -0.20586E-01   640   0.236E+00    0.171E+00
RMM:   4    -0.110766879362E+02    0.27895E-01   -0.98996E-02   640   0.139E+00    0.103E+00
RMM:   5    -0.110832106318E+02   -0.65227E-02   -0.30101E-02   640   0.809E-01    0.843E-01
RMM:   6    -0.110796880293E+02    0.35226E-02   -0.10360E-02   640   0.498E-01    0.397E-01
RMM:   7    -0.110833549034E+02   -0.36669E-02   -0.55829E-03   640   0.342E-01    0.381E-01
RMM:   8    -0.110835654362E+02   -0.21053E-03   -0.23315E-03   632   0.242E-01    0.182E-01
RMM:   9    -0.110847129061E+02   -0.11475E-02   -0.58837E-04   517   0.124E-01    0.713E-02
RMM:  10    -0.110862538720E+02   -0.15410E-02   -0.21933E-04   454   0.682E-02    0.289E-02
RMM:  11    -0.110873294971E+02   -0.10756E-02   -0.10670E-04   448   0.422E-02    0.191E-02
RMM:  12    -0.110882804897E+02   -0.95099E-03   -0.10079E-04   442   0.358E-02    0.107E-02
RMM:  13    -0.110888419863E+02   -0.56150E-03   -0.76970E-05   408   0.282E-02    0.710E-03
RMM:  14    -0.110891246552E+02   -0.28267E-03   -0.40402E-05   378   0.214E-02    0.528E-03
RMM:  15    -0.110892876132E+02   -0.16296E-03   -0.27456E-05   383   0.200E-02
  12 F= -.11089288E+02 E0= -.11091413E+02  d E =-.210579E+00  mag=     4.0000
       N       E                     dE             d eps       ncg     rms          rms(c)
DAV:   1    -0.111167863339E+02   -0.27662E-01   -0.15031E+00   744   0.566E+00    0.771E-01
RMM:   2    -0.111090053912E+02    0.77809E-02   -0.50918E-02   640   0.129E+00    0.455E-01
RMM:   3    -0.111121894253E+02   -0.31840E-02   -0.44241E-03   640   0.349E-01    0.200E-01
RMM:   4    -0.111135928679E+02   -0.14034E-02   -0.12806E-03   640   0.161E-01    0.148E-01
RMM:   5    -0.111151276491E+02   -0.15348E-02   -0.42144E-04   484   0.934E-02    0.888E-02
RMM:   6    -0.111157300249E+02   -0.60238E-03   -0.15991E-04   448   0.662E-02    0.396E-02
RMM:   7    -0.111161011483E+02   -0.37112E-03   -0.79712E-05   448   0.432E-02    0.396E-02
RMM:   8    -0.111161927096E+02   -0.91561E-04   -0.26278E-05   432   0.268E-02
  13 F= -.11116193E+02 E0= -.11118286E+02  d E =-.269051E-01  mag=     4.0000
       N       E                     dE             d eps       ncg     rms          rms(c)
DAV:   1    -0.111561668868E+02   -0.40066E-01   -0.13360E+01   644   0.168E+01    0.232E+00
RMM:   2    -0.111069653415E+02    0.49202E-01   -0.48521E-01   640   0.391E+00    0.136E+00
RMM:   3    -0.111561043302E+02   -0.49139E-01   -0.46821E-02   640   0.113E+00    0.592E-01
RMM:   4    -0.111664009255E+02   -0.10297E-01   -0.11537E-02   640   0.489E-01    0.425E-01
RMM:   5    -0.111761614794E+02   -0.97606E-02   -0.53318E-03   640   0.316E-01    0.183E-01
RMM:   6    -0.111790471972E+02   -0.28857E-02   -0.92336E-04   560   0.140E-01    0.687E-02
RMM:   7    -0.111805670838E+02   -0.15199E-02   -0.24486E-04   472   0.716E-02    0.317E-02
RMM:   8    -0.111814175151E+02   -0.85043E-03   -0.96147E-05   448   0.423E-02    0.287E-02
RMM:   9    -0.111816493294E+02   -0.23181E-03   -0.27596E-05   414   0.241E-02    0.233E-02
RMM:  10    -0.111820990193E+02   -0.44969E-03   -0.42535E-05   424   0.275E-02    0.104E-02
RMM:  11    -0.111826815601E+02   -0.58254E-03   -0.62550E-05   408   0.263E-02    0.768E-03
RMM:  12    -0.111829355697E+02   -0.25401E-03   -0.29442E-05   359   0.186E-02    0.446E-03
RMM:  13    -0.111831802266E+02   -0.24466E-03   -0.54503E-05   396   0.232E-02    0.326E-03
RMM:  14    -0.111832427504E+02   -0.62524E-04   -0.10261E-05   282   0.148E-02
  14 F= -.11183243E+02 E0= -.11185281E+02  d E =-.939551E-01  mag=     4.0000
       N       E                     dE             d eps       ncg     rms          rms(c)
DAV:   1    -0.109799204238E+02    0.20326E+00   -0.53389E+01   652   0.333E+01    0.473E+00
RMM:   2    -0.109429589030E+02    0.36962E-01   -0.20959E+00   640   0.800E+00    0.274E+00
RMM:   3    -0.111779051031E+02   -0.23495E+00   -0.24135E-01   640   0.240E+00    0.120E+00
RMM:   4    -0.112150945629E+02   -0.37189E-01   -0.50187E-02   640   0.975E-01    0.923E-01
RMM:   5    -0.112441008359E+02   -0.29006E-01   -0.30241E-02   640   0.772E-01    0.482E-01
RMM:   6    -0.112528352094E+02   -0.87344E-02   -0.10059E-02   640   0.446E-01    0.218E-01
RMM:   7    -0.112574193749E+02   -0.45842E-02   -0.14106E-03   567   0.165E-01    0.221E-01
RMM:   8    -0.112582856620E+02   -0.86629E-03   -0.40747E-04   488   0.103E-01    0.140E-01
RMM:   9    -0.112603973256E+02   -0.21117E-02   -0.47889E-04   492   0.106E-01    0.443E-02
RMM:  10    -0.112620952291E+02   -0.16979E-02   -0.19748E-04   464   0.569E-02    0.244E-02
RMM:  11    -0.112631044615E+02   -0.10092E-02   -0.11397E-04   452   0.402E-02    0.148E-02
RMM:  12    -0.112640665643E+02   -0.96210E-03   -0.15392E-04   436   0.392E-02    0.831E-03
RMM:  13    -0.112646526411E+02   -0.58608E-03   -0.14656E-04   434   0.362E-02    0.495E-03
RMM:  14    -0.112648012547E+02   -0.14861E-03   -0.36556E-05   374   0.204E-02
  15 F= -.11264801E+02 E0= -.11266782E+02  d E =-.175514E+00  mag=     4.0000
       N       E                     dE             d eps       ncg     rms          rms(c)
DAV:   1    -0.958797599230E+01    0.16767E+01   -0.22283E+02   648   0.681E+01    0.105E+01
RMM:   2    -0.100709727646E+02   -0.48300E+00   -0.89113E+00   640   0.163E+01    0.542E+00
RMM:   3    -0.110340068476E+02   -0.96303E+00   -0.10898E+00   640   0.496E+00    0.275E+00
RMM:   4    -0.111521227085E+02   -0.11812E+00   -0.19519E-01   640   0.187E+00    0.217E+00
RMM:   5    -0.112802157742E+02   -0.12809E+00   -0.22735E-01   640   0.189E+00    0.128E+00
RMM:   6    -0.112987667275E+02   -0.18551E-01   -0.91127E-02   640   0.125E+00    0.538E-01
RMM:   7    -0.113148307842E+02   -0.16064E-01   -0.14189E-02   640   0.495E-01    0.496E-01
RMM:   8    -0.113170068566E+02   -0.21761E-02   -0.23783E-03   609   0.242E-01    0.311E-01
RMM:   9    -0.113205251911E+02   -0.35183E-02   -0.16469E-03   584   0.201E-01    0.992E-02
RMM:  10    -0.113242783458E+02   -0.37532E-02   -0.62793E-04   523   0.117E-01    0.615E-02
RMM:  11    -0.113276987069E+02   -0.34204E-02   -0.68311E-04   525   0.105E-01    0.281E-02
RMM:  12    -0.113294567620E+02   -0.17581E-02   -0.32600E-04   472   0.670E-02    0.190E-02
RMM:  13    -0.113307481292E+02   -0.12914E-02   -0.34768E-04   461   0.597E-02    0.119E-02
RMM:  14    -0.113311877748E+02   -0.43965E-03   -0.12689E-04   435   0.365E-02    0.725E-03
RMM:  15    -0.113314056668E+02   -0.21789E-03   -0.48609E-05   363   0.229E-02    0.463E-03
RMM:  16    -0.113315579680E+02   -0.15230E-03   -0.42744E-05   390   0.216E-02
  16 F= -.11331558E+02 E0= -.11333505E+02  d E =-.242270E+00  mag=     4.0000
       N       E                     dE             d eps       ncg     rms          rms(c)
DAV:   1    -0.747515300397E+01    0.38563E+01   -0.10408E+03   640   0.156E+02    0.317E+01
RMM:   2    -0.855394266632E+01   -0.10788E+01   -0.46917E+01   640   0.345E+01    0.138E+01
RMM:   3    -0.102503810734E+02   -0.16964E+01   -0.47042E+00   640   0.102E+01    0.101E+01
RMM:   4    -0.106161208621E+02   -0.36574E+00   -0.63611E-01   640   0.392E+00    0.771E+00
RMM:   5    -0.110401492646E+02   -0.42403E+00   -0.78281E-01   640   0.391E+00    0.354E+00
RMM:   6    -0.111865665396E+02   -0.14642E+00   -0.34329E-01   640   0.275E+00    0.685E-01
RMM:   7    -0.112251415312E+02   -0.38575E-01   -0.29378E-02   640   0.887E-01    0.445E-01
RMM:   8    -0.112334887044E+02   -0.83472E-02   -0.43190E-03   640   0.334E-01    0.342E-01
RMM:   9    -0.112389534238E+02   -0.54647E-02   -0.26354E-03   616   0.255E-01    0.177E-01
RMM:  10    -0.112472377344E+02   -0.82843E-02   -0.28555E-03   640   0.245E-01    0.153E-01
RMM:  11    -0.112489184675E+02   -0.16807E-02   -0.57917E-04   509   0.118E-01    0.826E-02
RMM:  12    -0.112508271734E+02   -0.19087E-02   -0.43034E-04   491   0.988E-02    0.425E-02
RMM:  13    -0.112525731684E+02   -0.17460E-02   -0.44783E-04   485   0.845E-02    0.292E-02
RMM:  14    -0.112535400757E+02   -0.96691E-03   -0.25215E-04   468   0.606E-02    0.187E-02
RMM:  15    -0.112542430577E+02   -0.70298E-03   -0.22385E-04   436   0.493E-02    0.100E-02
RMM:  16    -0.112544676466E+02   -0.22459E-03   -0.91010E-05   426   0.327E-02    0.780E-03
RMM:  17    -0.112545526228E+02   -0.84976E-04   -0.28711E-05   357   0.197E-02
  17 F= -.11254553E+02 E0= -.11256500E+02  d E =-.165265E+00  mag=     4.0000
       N       E                     dE             d eps       ncg     rms          rms(c)
DAV:   1    -0.800789295761E+01    0.32466E+01   -0.91030E+02   648   0.147E+02    0.271E+01
RMM:   2    -0.113523585251E+02   -0.33445E+01   -0.36659E+01   640   0.352E+01    0.189E+01
RMM:   3    -0.112734857147E+02    0.78873E-01   -0.23340E+00   656   0.810E+00    0.805E+00
RMM:   4    -0.113127813755E+02   -0.39296E-01   -0.11227E+00   640   0.521E+00    0.667E+00
RMM:   5    -0.113206210083E+02   -0.78396E-02   -0.35589E-01   640   0.278E+00    0.427E+00
RMM:   6    -0.112768059226E+02    0.43815E-01   -0.32607E-01   640   0.247E+00    0.198E+00
RMM:   7    -0.112914196268E+02   -0.14614E-01   -0.12784E-01   640   0.153E+00    0.790E-01
RMM:   8    -0.113088173992E+02   -0.17398E-01   -0.17684E-02   640   0.618E-01    0.344E-01
RMM:   9    -0.113190642397E+02   -0.10247E-01   -0.45680E-03   640   0.322E-01    0.255E-01
RMM:  10    -0.113218451159E+02   -0.27809E-02   -0.86305E-04   539   0.140E-01    0.192E-01
RMM:  11    -0.113273868852E+02   -0.55418E-02   -0.13997E-03   608   0.175E-01    0.999E-02
RMM:  12    -0.113304673675E+02   -0.30805E-02   -0.37872E-04   490   0.938E-02    0.828E-02
RMM:  13    -0.113319763232E+02   -0.15090E-02   -0.24151E-04   464   0.717E-02    0.370E-02
RMM:  14    -0.113348961412E+02   -0.29198E-02   -0.42419E-04   503   0.786E-02    0.216E-02
RMM:  15    -0.113363317271E+02   -0.14356E-02   -0.22431E-04   464   0.575E-02    0.130E-02
RMM:  16    -0.113370433901E+02   -0.71166E-03   -0.11473E-04   412   0.423E-02    0.795E-03
RMM:  17    -0.113374973386E+02   -0.45395E-03   -0.77231E-05   396   0.354E-02    0.425E-03
RMM:  18    -0.113376264973E+02   -0.12916E-03   -0.25635E-05   355   0.220E-02
  18 F= -.11337626E+02 E0= -.11339572E+02  d E =-.248339E+00  mag=     4.0000
       N       E                     dE             d eps       ncg     rms          rms(c)
DAV:   1    -0.107178004174E+02    0.61970E+00   -0.16203E+02   672   0.573E+01    0.910E+00
RMM:   2    -0.107882175115E+02   -0.70417E-01   -0.65579E+00   640   0.138E+01    0.487E+00
RMM:   3    -0.111811163712E+02   -0.39290E+00   -0.61681E-01   640   0.388E+00    0.237E+00
RMM:   4    -0.112560895060E+02   -0.74973E-01   -0.13124E-01   640   0.169E+00    0.168E+00
RMM:   5    -0.113112215767E+02   -0.55132E-01   -0.81722E-02   640   0.138E+00    0.645E-01
RMM:   6    -0.113293950309E+02   -0.18173E-01   -0.16901E-02   640   0.645E-01    0.216E-01
RMM:   7    -0.113362372637E+02   -0.68422E-02   -0.27382E-03   640   0.250E-01    0.103E-01
RMM:   8    -0.113408223592E+02   -0.45851E-02   -0.98802E-04   570   0.142E-01    0.527E-02
RMM:   9    -0.113432314661E+02   -0.24091E-02   -0.38339E-04   486   0.880E-02    0.403E-02
RMM:  10    -0.113440088194E+02   -0.77735E-03   -0.11139E-04   448   0.481E-02    0.282E-02
RMM:  11    -0.113454124839E+02   -0.14037E-02   -0.28067E-04   472   0.654E-02    0.226E-02
RMM:  12    -0.113458664068E+02   -0.45392E-03   -0.87506E-05   423   0.345E-02    0.187E-02
RMM:  13    -0.113461797732E+02   -0.31337E-03   -0.67108E-05   405   0.296E-02    0.791E-03
RMM:  14    -0.113463668771E+02   -0.18710E-03   -0.37978E-05   386   0.226E-02
  19 F= -.11346367E+02 E0= -.11348308E+02  d E =-.257079E+00  mag=     4.0000
       N       E                     dE             d eps       ncg     rms          rms(c)
DAV:   1    -0.113794674025E+02   -0.33288E-01   -0.28432E+01   680   0.255E+01    0.370E+00
RMM:   2    -0.113622736438E+02    0.17194E-01   -0.10652E+00   640   0.605E+00    0.285E+00
RMM:   3    -0.113596530628E+02    0.26206E-02   -0.72334E-02   640   0.130E+00    0.837E-01
RMM:   4    -0.113467903140E+02    0.12863E-01   -0.38666E-02   640   0.815E-01    0.554E-01
RMM:   5    -0.113454029970E+02    0.13873E-02   -0.85034E-03   640   0.414E-01    0.359E-01
RMM:   6    -0.113460547613E+02   -0.65176E-03   -0.28399E-03   640   0.267E-01    0.106E-01
RMM:   7    -0.113471261275E+02   -0.10714E-02   -0.59615E-04   515   0.121E-01    0.827E-02
RMM:   8    -0.113474260561E+02   -0.29993E-03   -0.11263E-04   432   0.611E-02    0.651E-02
RMM:   9    -0.113477800807E+02   -0.35402E-03   -0.72528E-05   432   0.446E-02    0.331E-02
RMM:  10    -0.113482852914E+02   -0.50521E-03   -0.50343E-05   440   0.342E-02    0.202E-02
RMM:  11    -0.113485349327E+02   -0.24964E-03   -0.22146E-05   424   0.223E-02    0.122E-02
RMM:  12    -0.113487867784E+02   -0.25185E-03   -0.17228E-05   359   0.182E-02    0.535E-03
RMM:  13    -0.113489701608E+02   -0.18338E-03   -0.16974E-05   346   0.181E-02
  20 F= -.11348970E+02 E0= -.11350912E+02  d E =-.259683E+00  mag=     4.0000
       N       E                     dE             d eps       ncg     rms          rms(c)
DAV:   1    -0.113544700525E+02   -0.56833E-02   -0.10948E+00   744   0.485E+00    0.722E-01
RMM:   2    -0.113486813376E+02    0.57887E-02   -0.42011E-02   640   0.115E+00    0.506E-01
RMM:   3    -0.113483048757E+02    0.37646E-03   -0.30929E-03   640   0.270E-01    0.165E-01
RMM:   4    -0.113481372972E+02    0.16758E-03   -0.12691E-03   640   0.150E-01
  21 F= -.11348137E+02 E0= -.11350079E+02  d E =-.258850E+00  mag=     4.0000
       N       E                     dE             d eps       ncg     rms          rms(c)
DAV:   1    -0.113649835212E+02   -0.16679E-01   -0.41710E+00   728   0.937E+00    0.139E+00
RMM:   2    -0.113406563235E+02    0.24327E-01   -0.16069E-01   640   0.223E+00    0.967E-01
RMM:   3    -0.113430249506E+02   -0.23686E-02   -0.12672E-02   640   0.558E-01    0.346E-01
RMM:   4    -0.113439386597E+02   -0.91371E-03   -0.51715E-03   640   0.313E-01    0.236E-01
RMM:   5    -0.113460591175E+02   -0.21205E-02   -0.15544E-03   640   0.178E-01    0.133E-01
RMM:   6    -0.113472834666E+02   -0.12243E-02   -0.47059E-04   490   0.110E-01    0.386E-02
RMM:   7    -0.113478690118E+02   -0.58555E-03   -0.14255E-04   448   0.605E-02    0.317E-02
RMM:   8    -0.113480464732E+02   -0.17746E-03   -0.35384E-05   432   0.319E-02
  22 F= -.11348046E+02 E0= -.11349988E+02  d E =-.258759E+00  mag=     4.0000
       N       E                     dE             d eps       ncg     rms          rms(c)
DAV:   1    -0.113496661132E+02   -0.17971E-02   -0.22745E-01   748   0.223E+00    0.333E-01
RMM:   2    -0.113489702689E+02    0.69584E-03   -0.85831E-03   640   0.526E-01    0.240E-01
RMM:   3    -0.113490011069E+02   -0.30838E-04   -0.57575E-04   528   0.119E-01
  23 F= -.11349001E+02 E0= -.11350943E+02  d E =-.259713E+00  mag=     4.0000
       N       E                     dE             d eps       ncg     rms          rms(c)
DAV:   1    -0.113534910784E+02   -0.45208E-02   -0.73743E-01   740   0.398E+00    0.594E-01
RMM:   2    -0.113496384762E+02    0.38526E-02   -0.28409E-02   640   0.953E-01    0.444E-01
RMM:   3    -0.113493170837E+02    0.32139E-03   -0.20177E-03   640   0.214E-01    0.154E-01
RMM:   4    -0.113490070059E+02    0.31008E-03   -0.97667E-04   618   0.131E-01    0.107E-01
RMM:   5    -0.113490923822E+02   -0.85376E-04   -0.24229E-04   440   0.760E-02
  24 F= -.11349092E+02 E0= -.11351034E+02  d E =-.259805E+00  mag=     4.0000
       N       E                     dE             d eps       ncg     rms          rms(c)
DAV:   1    -0.113496400219E+02   -0.63302E-03   -0.70200E-02   732   0.123E+00    0.185E-01
RMM:   2    -0.113493225769E+02    0.31744E-03   -0.27110E-03   640   0.291E-01    0.135E-01
RMM:   3    -0.113492791829E+02    0.43394E-04   -0.16767E-04   432   0.671E-02
  25 F= -.11349279E+02 E0= -.11351221E+02  d E =-.259992E+00  mag=     4.0000
       N       E                     dE             d eps       ncg     rms          rms(c)
DAV:   1    -0.113496309535E+02   -0.30838E-03   -0.52151E-02   736   0.105E+00    0.155E-01
RMM:   2    -0.113493110354E+02    0.31992E-03   -0.20479E-03   640   0.253E-01    0.120E-01
RMM:   3    -0.113492724097E+02    0.38626E-04   -0.12292E-04   419   0.570E-02
  26 F= -.11349272E+02 E0= -.11351214E+02  d E =-.259985E+00  mag=     4.0000
       N       E                     dE             d eps       ncg     rms          rms(c)
DAV:   1    -0.113493771555E+02   -0.66120E-04   -0.12743E-02   704   0.520E-01    0.784E-02
RMM:   2    -0.113492894984E+02    0.87657E-04   -0.49307E-04   516   0.126E-01
  27 F= -.11349289E+02 E0= -.11351231E+02  d E =-.260002E+00  mag=     4.0000
       N       E                     dE             d eps       ncg     rms          rms(c)
DAV:   1    -0.113493375231E+02    0.39632E-04   -0.33303E-03   740   0.269E-01    0.510E-02
RMM:   2    -0.113492998512E+02    0.37672E-04   -0.15641E-04   389   0.713E-02
  28 F= -.11349300E+02 E0= -.11351241E+02  d E =-.260012E+00  mag=     4.0000
       N       E                     dE             d eps       ncg     rms          rms(c)
DAV:   1    -0.113493224636E+02    0.15059E-04   -0.81599E-04   736   0.132E-01    0.308E-02
RMM:   2    -0.113493254012E+02   -0.29376E-05   -0.39779E-05   401   0.347E-02
  29 F= -.11349325E+02 E0= -.11351267E+02  d E =-.260038E+00  mag=     4.0000
       N       E                     dE             d eps       ncg     rms          rms(c)
DAV:   1    -0.113493408889E+02   -0.18425E-04   -0.17963E-04   548   0.671E-02    0.207E-02
RMM:   2    -0.113493572482E+02   -0.16359E-04   -0.24360E-05   369   0.297E-02
  30 F= -.11349357E+02 E0= -.11351299E+02  d E =-.260070E+00  mag=     4.0000
       N       E                     dE             d eps       ncg     rms          rms(c)
DAV:   1     0.103160766366E+02    0.21665E+02   -0.18329E+03   768   0.182E+02    0.531E+01
RMM:   2    -0.866719762854E+01   -0.18983E+02   -0.13057E+02   654   0.591E+01    0.314E+01
RMM:   3    -0.999499479628E+01   -0.13278E+01   -0.11439E+01   648   0.164E+01    0.172E+01
RMM:   4    -0.105774170451E+02   -0.58242E+00   -0.20329E+00   640   0.699E+00    0.141E+01
RMM:   5    -0.103485953680E+02    0.22882E+00   -0.24339E+00   640   0.723E+00    0.717E+00
RMM:   6    -0.104709402933E+02   -0.12234E+00   -0.60719E-01   640   0.350E+00    0.411E+00
RMM:   7    -0.105307227457E+02   -0.59782E-01   -0.86382E-02   640   0.143E+00    0.322E+00
RMM:   8    -0.105397877374E+02   -0.90650E-02   -0.73496E-02   640   0.138E+00    0.193E+00
RMM:   9    -0.105742709077E+02   -0.34483E-01   -0.46963E-02   640   0.102E+00    0.972E-01
RMM:  10    -0.105861737455E+02   -0.11903E-01   -0.14187E-02   640   0.529E-01    0.520E-01
RMM:  11    -0.106007187275E+02   -0.14545E-01   -0.40376E-03   608   0.284E-01    0.272E-01
RMM:  12    -0.106197178507E+02   -0.18999E-01   -0.36840E-03   627   0.282E-01    0.990E-02
RMM:  13    -0.106282494840E+02   -0.85316E-02   -0.17853E-03   601   0.182E-01    0.851E-02
RMM:  14    -0.106342278812E+02   -0.59784E-02   -0.13099E-03   583   0.146E-01    0.536E-02
RMM:  15    -0.106384014285E+02   -0.41735E-02   -0.96806E-04   568   0.122E-01    0.330E-02
RMM:  16    -0.106396981266E+02   -0.12967E-02   -0.19124E-04   464   0.599E-02    0.202E-02
RMM:  17    -0.106409231710E+02   -0.12250E-02   -0.17702E-04   419   0.548E-02    0.119E-02
RMM:  18    -0.106414537231E+02   -0.53055E-03   -0.98694E-05   435   0.378E-02    0.955E-03
RMM:  19    -0.106418303486E+02   -0.37663E-03   -0.56625E-05   393   0.288E-02    0.833E-03
RMM:  20    -0.106419971430E+02   -0.16679E-03   -0.19124E-05   347   0.189E-02
  31 F= -.10641997E+02 E0= -.10644903E+02  d E =0.447290E+00  mag=     4.0002
