    6    6  800    2
  0.5625000E+03  0.1500000E-08  0.1500000E-08  0.1500000E-08  0.5000000E-15
  1.000000000000000E-004
  CAR 
 unknown system                          
     12      1     20
 
  0.0000000E+00  0.0000000E+00  0.0000000E+00  0.1000000E+01
    1      -18.898337    -18.291347
    2      -14.569744    -13.390967
    3      -10.692946    -10.256764
    4      -10.322963     -9.946603
    5       -9.846809     -9.516163
    6       -5.619877     -2.507237
    7       -4.664918     -1.805191
    8       -0.488083     -0.294733
    9        0.075509      0.232177
   10        0.256481      0.374648
   11        0.328967      0.514921
   12        0.355603      0.534729
   13        0.588707      0.638586
   14        0.603479      0.668792
   15        0.936173      0.997905
   16        0.982982      1.052425
   17        0.995090      1.063116
   18        1.039668      1.143660
   19        1.090228      1.186965
   20        1.115996      1.231679
