       N       E                     dE             d eps       ncg     rms          rms(c)
DAV:   1     0.281282671735E+02    0.28128E+02   -0.25994E+03   140   0.222E+02
DAV:   2    -0.228424561803E+02   -0.50971E+02   -0.50971E+02   160   0.560E+01
DAV:   3    -0.248220503840E+02   -0.19796E+01   -0.19796E+01    80   0.127E+01
DAV:   4    -0.248642338739E+02   -0.42183E-01   -0.42183E-01   120   0.196E+00
DAV:   5    -0.248644813524E+02   -0.24748E-03   -0.24748E-03   120   0.141E-01    0.142E+01
DAV:   6    -0.164419777178E+02    0.84225E+01   -0.36995E+01   100   0.187E+01    0.673E+00
DAV:   7    -0.230100946845E+02   -0.65681E+01   -0.63057E+00   140   0.820E+00    0.399E+00
DAV:   8    -0.248953705217E+02   -0.18853E+01   -0.54137E-01    80   0.261E+00    0.210E+00
DAV:   9    -0.270272011729E+02   -0.21318E+01   -0.81310E-01    80   0.254E+00    0.628E-01
DAV:  10    -0.275207007962E+02   -0.49350E+00   -0.63805E-02   120   0.850E-01    0.414E-01
DAV:  11    -0.279131837805E+02   -0.39248E+00   -0.38330E-02   120   0.648E-01    0.250E-01
DAV:  12    -0.284165514157E+02   -0.50337E+00   -0.53781E-02   160   0.631E-01    0.105E-01
DAV:  13    -0.285293509873E+02   -0.11280E+00   -0.63570E-03    80   0.226E-01    0.653E-02
DAV:  14    -0.285917302260E+02   -0.62379E-01   -0.45610E-03   120   0.173E-01    0.355E-02
DAV:  15    -0.285901904220E+02    0.15398E-02   -0.77535E-04    80   0.768E-02    0.247E-02
DAV:  16    -0.285919841311E+02   -0.17937E-02   -0.47553E-04   140   0.604E-02    0.187E-02
DAV:  17    -0.285979219803E+02   -0.59378E-02   -0.47001E-04   120   0.541E-02    0.129E-02
DAV:  18    -0.286039799988E+02   -0.60580E-02   -0.47366E-04   160   0.441E-02    0.710E-03
DAV:  19    -0.286050401093E+02   -0.10601E-02   -0.32237E-05   120   0.135E-02    0.449E-03
DAV:  20    -0.286053597101E+02   -0.31960E-03   -0.20306E-05   120   0.106E-02    0.268E-03
DAV:  21    -0.286053750449E+02   -0.15335E-04   -0.53701E-06   160   0.539E-03
   1 F= -.28605375E+02 E0= -.28605375E+02  d E =-.286054E+02  mag=     2.0011
       N       E                     dE             d eps       ncg     rms          rms(c)
DAV:   1    -0.272892251309E+02    0.13161E+01   -0.57000E+01    80   0.353E+01    0.218E+00
DAV:   2    -0.283965139239E+02   -0.11073E+01   -0.34897E+00   100   0.652E+00    0.166E+00
DAV:   3    -0.284456829364E+02   -0.49169E-01   -0.16386E-01   120   0.164E+00    0.859E-01
DAV:   4    -0.284627108117E+02   -0.17028E-01   -0.74614E-02   120   0.115E+00    0.369E-01
DAV:   5    -0.284916326538E+02   -0.28922E-01   -0.11558E-02   160   0.434E-01    0.184E-01
DAV:   6    -0.285072079909E+02   -0.15575E-01   -0.21605E-03    80   0.160E-01    0.734E-02
DAV:   7    -0.285144627779E+02   -0.72548E-02   -0.33695E-04   140   0.760E-02    0.220E-02
DAV:   8    -0.285173066667E+02   -0.28439E-02   -0.47230E-05   120   0.236E-02    0.128E-02
DAV:   9    -0.285202013630E+02   -0.28947E-02   -0.33867E-05    80   0.173E-02    0.723E-03
DAV:  10    -0.285220378723E+02   -0.18365E-02   -0.26517E-05   120   0.124E-02    0.412E-03
DAV:  11    -0.285226874786E+02   -0.64961E-03   -0.13948E-05    80   0.888E-03    0.292E-03
DAV:  12    -0.285228776660E+02   -0.19019E-03   -0.12996E-05   120   0.757E-03    0.189E-03
DAV:  13    -0.285229181092E+02   -0.40443E-04   -0.46363E-06   160   0.502E-03
   2 F= -.28522918E+02 E0= -.28522918E+02  d E =0.824569E-01  mag=     2.0000
       N       E                     dE             d eps       ncg     rms          rms(c)
DAV:   1    -0.287101482907E+02   -0.18727E+00   -0.16003E+01    80   0.191E+01    0.129E+00
DAV:   2    -0.287084974748E+02    0.16508E-02   -0.34248E-01   140   0.251E+00    0.723E-01
DAV:   3    -0.287082713182E+02    0.22616E-03   -0.24154E-02   140   0.702E-01    0.401E-01
DAV:   4    -0.287203441383E+02   -0.12073E-01   -0.78600E-03   100   0.360E-01    0.163E-01
DAV:   5    -0.287319172427E+02   -0.11573E-01   -0.16488E-03   140   0.147E-01    0.615E-02
DAV:   6    -0.287377207477E+02   -0.58035E-02   -0.21905E-04   140   0.547E-02    0.250E-02
DAV:   7    -0.287398177292E+02   -0.20970E-02   -0.28680E-05   100   0.204E-02    0.103E-02
DAV:   8    -0.287409231511E+02   -0.11054E-02   -0.15677E-05   120   0.112E-02    0.488E-03
DAV:   9    -0.287416212920E+02   -0.69814E-03   -0.72051E-06   120   0.727E-03    0.262E-03
DAV:  10    -0.287421236791E+02   -0.50239E-03   -0.74611E-06    80   0.658E-03    0.172E-03
DAV:  11    -0.287422598215E+02   -0.13614E-03   -0.77998E-06   120   0.606E-03    0.115E-03
DAV:  12    -0.287422555450E+02    0.42765E-05   -0.15903E-06   160   0.312E-03
   3 F= -.28742256E+02 E0= -.28742256E+02  d E =-.136881E+00  mag=     2.0000
       N       E                     dE             d eps       ncg     rms          rms(c)
DAV:   1    -0.286537033286E+02    0.88556E-01   -0.10906E+01    80   0.154E+01    0.963E-01
DAV:   2    -0.288241410494E+02   -0.17044E+00   -0.61432E-01   100   0.264E+00    0.553E-01
DAV:   3    -0.288435426996E+02   -0.19402E-01   -0.17440E-02   160   0.545E-01    0.274E-01
DAV:   4    -0.288470854149E+02   -0.35427E-02   -0.28126E-03   140   0.208E-01    0.131E-01
DAV:   5    -0.288506689510E+02   -0.35835E-02   -0.92070E-04   120   0.117E-01    0.436E-02
DAV:   6    -0.288525586162E+02   -0.18897E-02   -0.15273E-04   120   0.469E-02    0.176E-02
DAV:   7    -0.288535410267E+02   -0.98241E-03   -0.28423E-05   100   0.197E-02    0.747E-03
DAV:   8    -0.288540375625E+02   -0.49654E-03   -0.66100E-06   100   0.101E-02    0.381E-03
DAV:   9    -0.288543920094E+02   -0.35445E-03   -0.43898E-06   160   0.640E-03    0.204E-03
DAV:  10    -0.288545862538E+02   -0.19424E-03   -0.24141E-06    80   0.400E-03    0.135E-03
DAV:  11    -0.288546929177E+02   -0.10666E-03   -0.23055E-06   140   0.340E-03    0.856E-04
DAV:  12    -0.288547210678E+02   -0.28150E-04   -0.15981E-06   100   0.285E-03
   4 F= -.28854721E+02 E0= -.28854721E+02  d E =-.112466E+00  mag=     2.0000
       N       E                     dE             d eps       ncg     rms          rms(c)
DAV:   1    -0.288581811359E+02   -0.34882E-02   -0.16482E+00    80   0.599E+00    0.399E-01
DAV:   2    -0.288570952851E+02    0.10859E-02   -0.28182E-02   140   0.691E-01    0.203E-01
DAV:   3    -0.288615621850E+02   -0.44669E-02   -0.19427E-03   160   0.191E-01    0.110E-01
DAV:   4    -0.288626077773E+02   -0.10456E-02   -0.32290E-04   160   0.681E-02    0.515E-02
DAV:   5    -0.288634380687E+02   -0.83029E-03   -0.10901E-04   120   0.391E-02    0.137E-02
DAV:   6    -0.288639568316E+02   -0.51876E-03   -0.26548E-05   120   0.193E-02    0.605E-03
DAV:   7    -0.288641763407E+02   -0.21951E-03   -0.34126E-06   100   0.716E-03    0.268E-03
DAV:   8    -0.288643141474E+02   -0.13781E-03   -0.16357E-06   160   0.415E-03    0.128E-03
DAV:   9    -0.288643880474E+02   -0.73900E-04   -0.59878E-07   100   0.221E-03
   5 F= -.28864388E+02 E0= -.28864388E+02  d E =-.122133E+00  mag=     2.0000
       N       E                     dE             d eps       ncg     rms          rms(c)
DAV:   1    -0.288490520654E+02    0.15262E-01   -0.61785E+00    80   0.118E+01    0.890E-01
DAV:   2    -0.288497178607E+02   -0.66580E-03   -0.14470E-01   120   0.157E+00    0.556E-01
DAV:   3    -0.288511551816E+02   -0.14373E-02   -0.18874E-02   160   0.539E-01    0.287E-01
DAV:   4    -0.288537015380E+02   -0.25464E-02   -0.39170E-03    80   0.276E-01    0.117E-01
DAV:   5    -0.288552553917E+02   -0.15539E-02   -0.59006E-04   120   0.102E-01    0.632E-02
DAV:   6    -0.288562901934E+02   -0.10348E-02   -0.38426E-04   100   0.713E-02    0.228E-02
DAV:   7    -0.288565985746E+02   -0.30838E-03   -0.37636E-05   140   0.266E-02    0.789E-03
DAV:   8    -0.288567962782E+02   -0.19770E-03   -0.55071E-06   100   0.815E-03    0.447E-03
DAV:   9    -0.288569628067E+02   -0.16653E-03   -0.39187E-06   140   0.654E-03    0.183E-03
DAV:  10    -0.288570691412E+02   -0.10633E-03   -0.22163E-06   100   0.417E-03    0.135E-03
DAV:  11    -0.288571380715E+02   -0.68930E-04   -0.22754E-06   140   0.358E-03
   6 F= -.28857138E+02 E0= -.28857138E+02  d E =0.724998E-02  mag=     2.0000
       N       E                     dE             d eps       ncg     rms          rms(c)
DAV:   1    -0.288899871066E+02   -0.32918E-01   -0.18071E+00    80   0.626E+00    0.459E-01
DAV:   2    -0.288920369725E+02   -0.20499E-02   -0.39298E-02   120   0.838E-01    0.302E-01
DAV:   3    -0.288912908344E+02    0.74614E-03   -0.45909E-03   160   0.276E-01    0.157E-01
DAV:   4    -0.288915276171E+02   -0.23678E-03   -0.16236E-03   120   0.169E-01    0.589E-02
DAV:   5    -0.288920334993E+02   -0.50588E-03   -0.25123E-04   140   0.654E-02    0.341E-02
DAV:   6    -0.288924204413E+02   -0.38694E-03   -0.11480E-04   140   0.385E-02    0.131E-02
DAV:   7    -0.288925441377E+02   -0.12370E-03   -0.85248E-06    80   0.129E-02    0.486E-03
DAV:   8    -0.288926274226E+02   -0.83285E-04   -0.22100E-06   160   0.526E-03
   7 F= -.28892627E+02 E0= -.28892627E+02  d E =-.282394E-01  mag=     2.0000
       N       E                     dE             d eps       ncg     rms          rms(c)
DAV:   1    -0.289139515555E+02   -0.21407E-01   -0.10783E+00    80   0.489E+00    0.331E-01
DAV:   2    -0.289140752186E+02   -0.12366E-03   -0.21242E-02   160   0.638E-01    0.201E-01
DAV:   3    -0.289139669799E+02    0.10824E-03   -0.13861E-03   100   0.163E-01    0.107E-01
DAV:   4    -0.289145184806E+02   -0.55150E-03   -0.64841E-04    80   0.109E-01    0.363E-02
DAV:   5    -0.289150246081E+02   -0.50613E-03   -0.10237E-04   140   0.426E-02    0.182E-02
DAV:   6    -0.289152238295E+02   -0.19922E-03   -0.16011E-05   120   0.153E-02    0.786E-03
DAV:   7    -0.289153090851E+02   -0.85256E-04   -0.23961E-06   120   0.699E-03
   8 F= -.28915309E+02 E0= -.28915309E+02  d E =-.226817E-01  mag=     2.0000
       N       E                     dE             d eps       ncg     rms          rms(c)
DAV:   1    -0.289189265600E+02   -0.37027E-02   -0.45825E-01    80   0.319E+00    0.216E-01
DAV:   2    -0.289189610121E+02   -0.34452E-04   -0.93529E-03   140   0.420E-01    0.133E-01
DAV:   3    -0.289189189869E+02    0.42025E-04   -0.64913E-04   160   0.108E-01
   9 F= -.28918919E+02 E0= -.28918919E+02  d E =-.262916E-01  mag=     2.0000
       N       E                     dE             d eps       ncg     rms          rms(c)
DAV:   1    -0.289313843157E+02   -0.12423E-01   -0.28502E-01    80   0.265E+00    0.130E-01
DAV:   2    -0.289318228197E+02   -0.43850E-03   -0.29124E-03   160   0.246E-01    0.863E-02
DAV:   3    -0.289319253968E+02   -0.10258E-03   -0.17029E-04   160   0.581E-02    0.388E-02
DAV:   4    -0.289320158143E+02   -0.90417E-04   -0.60904E-05   120   0.377E-02
  10 F= -.28932016E+02 E0= -.28932016E+02  d E =-.130968E-01  mag=     2.0000
       N       E                     dE             d eps       ncg     rms          rms(c)
DAV:   1    -0.289451654508E+02   -0.13240E-01   -0.23026E+00    80   0.750E+00    0.342E-01
DAV:   2    -0.289463780003E+02   -0.12125E-02   -0.21479E-02   140   0.666E-01    0.228E-01
DAV:   3    -0.289462129163E+02    0.16508E-03   -0.10710E-03   120   0.148E-01    0.102E-01
DAV:   4    -0.289467001808E+02   -0.48726E-03   -0.47393E-04   140   0.104E-01    0.327E-02
DAV:   5    -0.289469712632E+02   -0.27108E-03   -0.45288E-05   120   0.325E-02    0.133E-02
DAV:   6    -0.289471028588E+02   -0.13160E-03   -0.13873E-05   140   0.148E-02    0.691E-03
DAV:   7    -0.289472022795E+02   -0.99421E-04   -0.59884E-06   160   0.939E-03
  11 F= -.28947202E+02 E0= -.28947202E+02  d E =-.282833E-01  mag=     2.0000
       N       E                     dE             d eps       ncg     rms          rms(c)
DAV:   1    -0.289503460741E+02   -0.32432E-02   -0.55141E-02    80   0.110E+00    0.761E-02
DAV:   2    -0.289502558345E+02    0.90240E-04   -0.98574E-04   160   0.123E-01
  12 F= -.28950256E+02 E0= -.28950256E+02  d E =-.305355E-02  mag=     2.0000
       N       E                     dE             d eps       ncg     rms          rms(c)
DAV:   1    -0.289540034917E+02   -0.36574E-02   -0.49290E-01    80   0.329E+00    0.246E-01
DAV:   2    -0.289528995255E+02    0.11040E-02   -0.84780E-03   160   0.363E-01    0.143E-01
DAV:   3    -0.289541756230E+02   -0.12761E-02   -0.58775E-04   120   0.108E-01    0.829E-02
DAV:   4    -0.289547154988E+02   -0.53988E-03   -0.19129E-04   120   0.496E-02    0.347E-02
DAV:   5    -0.289551968353E+02   -0.48134E-03   -0.37749E-05   140   0.205E-02    0.110E-02
DAV:   6    -0.289554959672E+02   -0.29913E-03   -0.12515E-05   160   0.120E-02    0.396E-03
DAV:   7    -0.289556133674E+02   -0.11740E-03   -0.12978E-06   140   0.440E-03    0.180E-03
DAV:   8    -0.289557046550E+02   -0.91288E-04   -0.70168E-07   120   0.225E-03
  13 F= -.28955705E+02 E0= -.28955705E+02  d E =-.850238E-02  mag=     2.0000
       N       E                     dE             d eps       ncg     rms          rms(c)
DAV:   1    -0.289590908962E+02   -0.34775E-02   -0.12286E-01   100   0.174E+00    0.104E-01
DAV:   2    -0.289591319023E+02   -0.41006E-04   -0.20737E-03   160   0.186E-01    0.570E-02
DAV:   3    -0.289593035187E+02   -0.17162E-03   -0.10956E-04   140   0.459E-02    0.320E-02
DAV:   4    -0.289593774598E+02   -0.73941E-04   -0.49073E-05   100   0.302E-02
  14 F= -.28959377E+02 E0= -.28959377E+02  d E =-.367280E-02  mag=     2.0000
       N       E                     dE             d eps       ncg     rms          rms(c)
DAV:   1    -0.289605531291E+02   -0.12496E-02   -0.30367E-01    80   0.273E+00    0.162E-01
DAV:   2    -0.289608516545E+02   -0.29853E-03   -0.60656E-03   120   0.318E-01    0.930E-02
DAV:   3    -0.289611814017E+02   -0.32975E-03   -0.29387E-04   160   0.785E-02    0.533E-02
DAV:   4    -0.289613425031E+02   -0.16110E-03   -0.15445E-04   120   0.534E-02    0.216E-02
DAV:   5    -0.289614970690E+02   -0.15457E-03   -0.24513E-05   160   0.225E-02    0.852E-03
DAV:   6    -0.289615885751E+02   -0.91506E-04   -0.56632E-06   140   0.841E-03
  15 F= -.28961589E+02 E0= -.28961589E+02  d E =-.588392E-02  mag=     2.0000
       N       E                     dE             d eps       ncg     rms          rms(c)
DAV:   1    -0.289635002922E+02   -0.20032E-02   -0.15410E-01    80   0.194E+00    0.981E-02
DAV:   2    -0.289635026665E+02   -0.23743E-05   -0.19912E-03   160   0.198E-01    0.590E-02
DAV:   3    -0.289635345989E+02   -0.31932E-04   -0.11061E-04   160   0.462E-02
  16 F= -.28963535E+02 E0= -.28963535E+02  d E =-.194602E-02  mag=     2.0000
       N       E                     dE             d eps       ncg     rms          rms(c)
DAV:   1    -0.289637307238E+02   -0.22806E-03   -0.14765E-02   100   0.605E-01    0.365E-02
DAV:   2    -0.289637775038E+02   -0.46780E-04   -0.14694E-04   160   0.526E-02
  17 F= -.28963778E+02 E0= -.28963778E+02  d E =-.218893E-02  mag=     2.0000
       N       E                     dE             d eps       ncg     rms          rms(c)
DAV:   1    -0.289644853017E+02   -0.75458E-03   -0.36400E-02    80   0.885E-01    0.681E-02
DAV:   2    -0.289644151660E+02    0.70136E-04   -0.88696E-04   140   0.127E-01
  18 F= -.28964415E+02 E0= -.28964415E+02  d E =-.637662E-03  mag=     2.0000
       N       E                     dE             d eps       ncg     rms          rms(c)
DAV:   1    -0.289643175703E+02    0.16773E-03   -0.20491E-04   120   0.693E-02    0.237E-02
DAV:   2    -0.289644209389E+02   -0.10337E-03   -0.20274E-05   120   0.208E-02    0.141E-02
DAV:   3    -0.289644606350E+02   -0.39696E-04   -0.18764E-06   120   0.726E-03
  19 F= -.28964461E+02 E0= -.28964461E+02  d E =-.683131E-03  mag=     2.0000
       N       E                     dE             d eps       ncg     rms          rms(c)
DAV:   1    -0.289644985049E+02   -0.77566E-04   -0.72594E-05   160   0.386E-02    0.261E-03
DAV:   2    -0.289645090289E+02   -0.10524E-04   -0.18465E-06   120   0.526E-03
  20 F= -.28964509E+02 E0= -.28964509E+02  d E =-.731525E-03  mag=     2.0000
       N       E                     dE             d eps       ncg     rms          rms(c)
DAV:   1    -0.289645173841E+02   -0.18879E-04   -0.65070E-06   160   0.120E-02    0.154E-03
DAV:   2    -0.289645225079E+02   -0.51238E-05   -0.16905E-07   120   0.163E-03
  21 F= -.28964523E+02 E0= -.28964523E+02  d E =-.745004E-03  mag=     2.0000
       N       E                     dE             d eps       ncg     rms          rms(c)
DAV:   1    -0.289645277534E+02   -0.10369E-04   -0.28705E-06   120   0.795E-03    0.974E-04
DAV:   2    -0.289645302508E+02   -0.24974E-05   -0.70572E-08   120   0.106E-03
  22 F= -.28964530E+02 E0= -.28964530E+02  d E =-.752747E-03  mag=     2.0000
       N       E                     dE             d eps       ncg     rms          rms(c)
DAV:   1    -0.289645326899E+02   -0.49365E-05   -0.72741E-07   100   0.400E-03    0.594E-04
DAV:   2    -0.289645342980E+02   -0.16081E-05   -0.29781E-08   140   0.644E-04
  23 F= -.28964534E+02 E0= -.28964534E+02  d E =-.756794E-03  mag=     2.0000
       N       E                     dE             d eps       ncg     rms          rms(c)
DAV:   1    -0.289645359585E+02   -0.32686E-05   -0.18785E-07   120   0.201E-03    0.352E-04
DAV:   2    -0.289645370571E+02   -0.10986E-05   -0.10258E-08   140   0.353E-04
  24 F= -.28964537E+02 E0= -.28964537E+02  d E =-.759553E-03  mag=     2.0000
       N       E                     dE             d eps       ncg     rms          rms(c)
DAV:   1    -0.289645381522E+02   -0.21936E-05   -0.50850E-08   140   0.102E-03    0.207E-04
DAV:   2    -0.289645389492E+02   -0.79705E-06   -0.49314E-09   120   0.221E-04
  25 F= -.28964539E+02 E0= -.28964539E+02  d E =-.761445E-03  mag=     2.0000
       N       E                     dE             d eps       ncg     rms          rms(c)
DAV:   1    -0.289646137154E+02   -0.75563E-04   -0.38083E-03    80   0.296E-01    0.166E-02
DAV:   2    -0.289646098431E+02    0.38724E-05   -0.52698E-05   120   0.328E-02
  26 F= -.28964610E+02 E0= -.28964610E+02  d E =-.708938E-04  mag=     2.0000
