    1    1  800    1
  0.3375000E+04  0.1500000E-08  0.1500000E-08  0.1500000E-08  0.5000000E-15
  1.000000000000000E-004
  CAR 
 unknown system                          
      1      1      4
 
  0.0000000E+00  0.0000000E+00  0.0000000E+00  0.1000000E+01
    1       -6.477076
    2       -0.093543
    3        0.444279
    4        0.444302
