       N       E                     dE             d eps       ncg     rms          rms(c)
DAV:   1     0.323637385575E+01    0.32364E+01   -0.22629E+01     8   0.175E+01
DAV:   2     0.551061935261E-01   -0.31813E+01   -0.31813E+01    12   0.141E+01
DAV:   3    -0.271435009052E-01   -0.82250E-01   -0.82250E-01     8   0.503E+00
DAV:   4    -0.280805014392E-01   -0.93700E-03   -0.93700E-03    16   0.519E-01
DAV:   5    -0.280805131985E-01   -0.11759E-07   -0.11118E-07     8   0.181E-03    0.678E-02
DAV:   6    -0.281332125666E-01   -0.52699E-04   -0.20820E-05     8   0.591E-02
   1 F= -.28133213E-01 E0= -.14028473E-01  d E =-.281332E-01
