    1    1  800    2
  0.3375000E+04  0.1500000E-08  0.1500000E-08  0.1500000E-08  0.5000000E-15
  1.000000000000000E-004
  CAR 
 unknown system                          
      6      1      8
 
  0.0000000E+00  0.0000000E+00  0.0000000E+00  0.1000000E+01
    1      -25.221290    -21.554243
    2      -10.899835     -7.541967
    3      -10.896560     -6.434963
    4       -8.793227     -6.431180
    5       -0.266555     -0.172210
    6        0.239653      0.403741
    7        0.544222      0.520148
    8        0.629243      0.580960
