       N       E                     dE             d eps       ncg     rms          rms(c)
DAV:   1     0.502357200732E+02    0.50236E+02   -0.84160E+02    48   0.216E+02
DAV:   2     0.134495532714E+02   -0.36786E+02   -0.36604E+02    64   0.483E+01
DAV:   3     0.104483910136E+00   -0.13345E+02   -0.12569E+02    32   0.423E+01
DAV:   4    -0.113245292053E+01   -0.12369E+01   -0.12154E+01    32   0.176E+01
DAV:   5    -0.114722716114E+01   -0.14774E-01   -0.14767E-01    32   0.161E+00    0.652E+00
DAV:   6     0.697960512043E+00    0.18452E+01   -0.37197E+00    32   0.970E+00    0.157E+00
DAV:   7    -0.641686526515E+00   -0.13396E+01   -0.70463E-01    32   0.395E+00    0.453E+00
DAV:   8    -0.265517679508E+00    0.37617E+00   -0.15354E-02    32   0.117E+00    0.442E+00
DAV:   9    -0.246514794105E+00    0.19003E-01   -0.34485E-02    56   0.328E-01    0.462E+00
DAV:  10    -0.235066156468E+00    0.11449E-01   -0.28725E-02    32   0.520E-01    0.335E+00
DAV:  11    -0.292124237420E+00   -0.57058E-01   -0.79957E-03    32   0.491E-01    0.343E+00
DAV:  12    -0.300009869386E+00   -0.78856E-02   -0.21903E-03    40   0.285E-01    0.315E+00
DAV:  13    -0.674766023950E+00   -0.37476E+00   -0.27133E-01    32   0.176E+00    0.303E+00
DAV:  14    -0.716808845428E+00   -0.42043E-01   -0.51108E-03    32   0.658E-01    0.313E+00
DAV:  15    -0.101579346325E+01   -0.29898E+00   -0.62005E-02    32   0.165E+00    0.496E+00
DAV:  16    -0.125150390003E+01   -0.23571E+00   -0.43479E-02    48   0.134E+00    0.462E+00
DAV:  17    -0.135627899011E+01   -0.10478E+00   -0.19049E-02    32   0.827E-01    0.443E+00
DAV:  18    -0.154977690869E+01   -0.19350E+00   -0.91821E-02    32   0.204E+00    0.420E+00
DAV:  19    -0.156714748628E+01   -0.17371E-01   -0.74027E-03    48   0.528E-01    0.419E+00
DAV:  20    -0.156143342144E+01    0.57141E-02   -0.51380E-03    40   0.435E-01    0.432E+00
DAV:  21    -0.153546097513E+01    0.25972E-01   -0.98427E-03    40   0.582E-01    0.456E+00
DAV:  22    -0.152116628087E+01    0.14295E-01   -0.96138E-04    48   0.219E-01    0.464E+00
DAV:  23    -0.156596787011E+01   -0.44802E-01   -0.54099E-03    40   0.556E-01    0.437E+00
DAV:  24    -0.163274967234E+01   -0.66782E-01   -0.21887E-02    48   0.112E+00    0.370E+00
DAV:  25    -0.167665451478E+01   -0.43905E-01   -0.13239E-02    40   0.913E-01    0.322E+00
DAV:  26    -0.167228694031E+01    0.43676E-02   -0.18083E-03    32   0.221E-01    0.320E+00
DAV:  27    -0.167136344908E+01    0.92349E-03   -0.82043E-04    64   0.131E-01    0.320E+00
DAV:  28    -0.166758354376E+01    0.37799E-02   -0.37237E-03    40   0.237E-01    0.322E+00
DAV:  29    -0.168683529943E+01   -0.19252E-01   -0.33971E-03    32   0.333E-01    0.306E+00
DAV:  30    -0.169206989134E+01   -0.52346E-02   -0.68853E-03    48   0.375E-01    0.301E+00
DAV:  31    -0.173394594870E+01   -0.41876E-01   -0.45454E-02    32   0.105E+00    0.254E+00
DAV:  32    -0.181200322218E+01   -0.78057E-01   -0.74416E-02    32   0.170E+00    0.157E+00
DAV:  33    -0.185818828106E+01   -0.46185E-01   -0.10937E-02    40   0.847E-01    0.103E+00
DAV:  34    -0.187177502295E+01   -0.13587E-01   -0.20179E-03    56   0.385E-01    0.795E-01
DAV:  35    -0.188596448904E+01   -0.14189E-01   -0.74900E-03    56   0.709E-01    0.333E-01
DAV:  36    -0.188899073737E+01   -0.30262E-02   -0.52212E-04    32   0.193E-01    0.242E-01
DAV:  37    -0.189120138404E+01   -0.22106E-02   -0.36383E-04    48   0.160E-01    0.146E-01
DAV:  38    -0.189265333577E+01   -0.14520E-02   -0.78900E-04    48   0.225E-01    0.246E-02
DAV:  39    -0.189305902445E+01   -0.40569E-03   -0.12421E-04    32   0.932E-02    0.342E-02
DAV:  40    -0.189320801373E+01   -0.14899E-03   -0.13988E-05    40   0.369E-02    0.306E-02
DAV:  41    -0.189332104297E+01   -0.11303E-03   -0.16862E-05    40   0.336E-02    0.163E-02
DAV:  42    -0.189335262973E+01   -0.31587E-04   -0.27549E-06    40   0.124E-02
   1 F= -.18933526E+01 E0= -.18933526E+01  d E =-.189335E+01  mag=     1.9999
