   36   36  800    2
  0.9934389E+01  0.7603567E-09  0.7603567E-09  0.7142962E-09  0.5000000E-15
  1.000000000000000E-004
  CAR 
 unknown system                          
    101      1     88
 
  0.0000000E+00  0.0000000E+00  0.0000000E+00  0.1000000E+01
    1      -25.923365    -25.322289
    2      -22.656746    -22.648148
    3      -22.310394    -22.306219
    4      -22.070176    -22.066166
    5      -21.917062    -21.912341
    6      -21.876895    -21.876082
    7      -21.745964    -21.743514
    8      -21.575215    -21.571130
    9      -21.416834    -21.416089
   10      -21.291742    -21.288798
   11      -21.137236    -21.132750
   12      -20.676266    -20.672759
   13      -17.282740    -16.476942
   14      -10.475321    -10.452060
   15      -10.248783    -10.179253
   16      -10.175368    -10.124595
   17      -10.071744    -10.026254
   18       -9.915153     -9.869852
   19       -9.837157     -9.836025
   20       -9.789202     -9.778273
   21       -9.719419     -9.716030
   22       -9.598901     -9.592549
   23       -9.540870     -9.529975
   24       -9.478898     -9.417475
   25       -9.178247     -9.174579
   26       -8.518204     -8.368411
   27       -8.034136     -7.674440
   28       -7.711809     -7.323122
   29       -7.350884     -7.072000
   30       -6.977713     -6.791888
   31       -6.801222     -6.716949
   32       -6.725555     -6.588052
   33       -6.484638     -6.369371
   34       -5.994973     -5.968544
   35       -5.778083     -5.723627
   36       -5.664490     -5.650289
   37       -5.412956     -5.390170
   38       -5.219102     -5.162301
   39       -4.625356     -4.617216
   40       -4.426648     -4.421352
   41       -4.381025     -4.378820
   42       -4.246253     -4.244022
   43       -4.206591     -4.198647
   44       -4.092930     -4.090814
   45       -4.088272     -4.086047
   46       -3.990844     -3.989692
   47       -3.898900     -3.895822
   48       -3.838082     -3.834667
   49       -3.461771     -3.423252
   50       -2.992529     -2.333334
   51       -2.664424     -1.234982
   52        1.827929      1.845212
   53        3.764011      4.098636
   54        4.756034      4.772237
   55        4.925160      4.949587
   56        4.966036      5.002692
   57        5.201273      5.222760
   58        5.547466      5.572182
   59        5.642671      5.647254
   60        5.760367      5.804499
   61        5.830318      5.924474
   62        6.438306      6.464316
   63        6.745656      6.781867
   64        7.155823      7.174156
   65        7.299229      7.311854
   66        7.348898      7.361472
   67        7.605330      7.621083
   68        7.903997      7.946688
   69        8.018617      8.074002
   70        8.528992      8.552932
   71        8.548021      8.570144
   72        8.618033      8.643500
   73        8.805028      8.831907
   74        9.361575      9.374217
   75        9.440611      9.458783
   76        9.484184      9.509449
   77        9.615976      9.628832
   78        9.677063      9.697753
   79        9.761671      9.777379
   80       10.108586     10.139318
   81       10.317185     10.325044
   82       10.406893     10.410976
   83       10.478367     10.482609
   84       10.558256     10.581639
   85       10.627980     10.648313
   86       10.705450     10.715110
   87       10.806748     10.819385
   88       10.904473     10.935213
