       N       E                     dE             d eps       ncg     rms          rms(c)
DAV:   1     0.539629506449E+03    0.53963E+03   -0.42704E+04   360   0.825E+02
DAV:   2    -0.102028914174E+03   -0.64166E+03   -0.61364E+03   424   0.233E+02
DAV:   3    -0.151447409627E+03   -0.49418E+02   -0.48996E+02   440   0.664E+01
DAV:   4    -0.151979960800E+03   -0.53255E+00   -0.53126E+00   424   0.765E+00
DAV:   5    -0.151985557031E+03   -0.55962E-02   -0.55954E-02   416   0.726E-01    0.462E+01
DAV:   6    -0.117999814226E+03    0.33986E+02   -0.15498E+02   400   0.388E+01    0.158E+01
DAV:   7    -0.168871326328E+03   -0.50872E+02   -0.48898E+01   392   0.171E+01    0.890E+00
DAV:   8    -0.173957245112E+03   -0.50859E+01   -0.45807E+00   392   0.646E+00    0.510E+00
DAV:   9    -0.174582887748E+03   -0.62564E+00   -0.12771E+00   408   0.379E+00    0.166E+00
DAV:  10    -0.174556933172E+03    0.25955E-01   -0.10133E-01   416   0.120E+00    0.744E-01
DAV:  11    -0.174551401913E+03    0.55313E-02   -0.61242E-02   400   0.801E-01    0.308E-01
DAV:  12    -0.174551914841E+03   -0.51293E-03   -0.53021E-03   416   0.276E-01    0.174E-01
DAV:  13    -0.174552046674E+03   -0.13183E-03   -0.13020E-03   400   0.161E-01    0.650E-02
DAV:  14    -0.174552009114E+03    0.37560E-04   -0.48643E-04   384   0.945E-02
   1 F= -.17455201E+03 E0= -.17455201E+03  d E =-.174552E+03  mag=     1.0042
       N       E                     dE             d eps       ncg     rms          rms(c)
DAV:   1    -0.172410387682E+03    0.21417E+01   -0.44947E+02   352   0.711E+01    0.599E+00
DAV:   2    -0.173706714885E+03   -0.12963E+01   -0.16643E+01   432   0.123E+01    0.334E+00
DAV:   3    -0.173676293235E+03    0.30422E-01   -0.39618E-01   440   0.234E+00    0.188E+00
DAV:   4    -0.173654349635E+03    0.21944E-01   -0.10046E-01   424   0.146E+00    0.989E-01
DAV:   5    -0.173658633379E+03   -0.42837E-02   -0.29829E-02   416   0.821E-01    0.413E-01
DAV:   6    -0.173659692052E+03   -0.10587E-02   -0.11115E-02   400   0.428E-01    0.205E-01
DAV:   7    -0.173659889795E+03   -0.19774E-03   -0.12869E-03   400   0.170E-01    0.108E-01
DAV:   8    -0.173659928089E+03   -0.38295E-04   -0.65374E-04   432   0.104E-01
   2 F= -.17365993E+03 E0= -.17365993E+03  d E =0.892081E+00  mag=     1.0000
       N       E                     dE             d eps       ncg     rms          rms(c)
DAV:   1    -0.174683153647E+03   -0.10233E+01   -0.17723E+02   352   0.451E+01    0.343E+00
DAV:   2    -0.175050023625E+03   -0.36687E+00   -0.49369E+00   464   0.728E+00    0.206E+00
DAV:   3    -0.175033392513E+03    0.16631E-01   -0.14580E-01   400   0.148E+00    0.119E+00
DAV:   4    -0.175024842374E+03    0.85501E-02   -0.39384E-02   416   0.941E-01    0.581E-01
DAV:   5    -0.175027764481E+03   -0.29221E-02   -0.11388E-02   416   0.495E-01    0.233E-01
DAV:   6    -0.175028023619E+03   -0.25914E-03   -0.37824E-03   416   0.274E-01    0.104E-01
DAV:   7    -0.175028045612E+03   -0.21993E-04   -0.52841E-04   384   0.106E-01
   3 F= -.17502805E+03 E0= -.17502805E+03  d E =-.476036E+00  mag=     1.0000
       N       E                     dE             d eps       ncg     rms          rms(c)
DAV:   1    -0.175214477673E+03   -0.18645E+00   -0.92050E+01   352   0.312E+01    0.291E+00
DAV:   2    -0.175349121425E+03   -0.13464E+00   -0.19945E+00   464   0.481E+00    0.153E+00
DAV:   3    -0.175357835739E+03   -0.87143E-02   -0.78892E-02   416   0.103E+00    0.838E-01
DAV:   4    -0.175356474976E+03    0.13608E-02   -0.22890E-02   416   0.607E-01    0.426E-01
DAV:   5    -0.175357476808E+03   -0.10018E-02   -0.51403E-03   416   0.358E-01    0.158E-01
DAV:   6    -0.175357788446E+03   -0.31164E-03   -0.20521E-03   400   0.175E-01    0.762E-02
DAV:   7    -0.175357801102E+03   -0.12656E-04   -0.20924E-04   360   0.648E-02
   4 F= -.17535780E+03 E0= -.17535780E+03  d E =-.329755E+00  mag=     1.0000
       N       E                     dE             d eps       ncg     rms          rms(c)
DAV:   1    -0.175358203304E+03   -0.41486E-03   -0.21420E-01   384   0.151E+00    0.138E-01
DAV:   2    -0.175358487855E+03   -0.28455E-03   -0.43133E-03   432   0.225E-01    0.708E-02
DAV:   3    -0.175358520366E+03   -0.32512E-04   -0.16982E-04   368   0.519E-02
   5 F= -.17535852E+03 E0= -.17535852E+03  d E =-.330475E+00  mag=     1.0000
       N       E                     dE             d eps       ncg     rms          rms(c)
DAV:   1    -0.175521695606E+03   -0.16321E+00   -0.37116E+01   352   0.205E+01    0.152E+00
DAV:   2    -0.175583651502E+03   -0.61956E-01   -0.72518E-01   432   0.283E+00    0.835E-01
DAV:   3    -0.175584760886E+03   -0.11094E-02   -0.15228E-02   424   0.539E-01    0.473E-01
DAV:   4    -0.175583940568E+03    0.82032E-03   -0.64749E-03   416   0.359E-01    0.185E-01
DAV:   5    -0.175584884165E+03   -0.94360E-03   -0.16770E-03   384   0.181E-01    0.738E-02
DAV:   6    -0.175584948307E+03   -0.64142E-04   -0.21372E-04   392   0.679E-02
   6 F= -.17558495E+03 E0= -.17558495E+03  d E =-.226428E+00  mag=     1.0000
       N       E                     dE             d eps       ncg     rms          rms(c)
DAV:   1    -0.175600650533E+03   -0.15766E-01   -0.12483E+01   352   0.118E+01    0.887E-01
DAV:   2    -0.175620934236E+03   -0.20284E-01   -0.23710E-01   432   0.161E+00    0.479E-01
DAV:   3    -0.175621456242E+03   -0.52201E-03   -0.50469E-03   400   0.314E-01    0.271E-01
DAV:   4    -0.175621284145E+03    0.17210E-03   -0.20889E-03   424   0.208E-01    0.107E-01
DAV:   5    -0.175621603613E+03   -0.31947E-03   -0.57386E-04   392   0.107E-01    0.430E-02
DAV:   6    -0.175621621313E+03   -0.17700E-04   -0.71183E-05   336   0.400E-02
   7 F= -.17562162E+03 E0= -.17562162E+03  d E =-.263101E+00  mag=     1.0000
       N       E                     dE             d eps       ncg     rms          rms(c)
DAV:   1    -0.175712801169E+03   -0.91198E-01   -0.10820E+01   352   0.110E+01    0.863E-01
DAV:   2    -0.175730069420E+03   -0.17268E-01   -0.22718E-01   432   0.159E+00    0.478E-01
DAV:   3    -0.175731259201E+03   -0.11898E-02   -0.60267E-03   400   0.296E-01    0.273E-01
DAV:   4    -0.175731092916E+03    0.16629E-03   -0.19513E-03   408   0.200E-01    0.134E-01
DAV:   5    -0.175731426905E+03   -0.33399E-03   -0.64174E-04   400   0.113E-01    0.533E-02
DAV:   6    -0.175731450752E+03   -0.23847E-04   -0.15343E-04   352   0.505E-02
   8 F= -.17573145E+03 E0= -.17573145E+03  d E =-.109829E+00  mag=     1.0000
       N       E                     dE             d eps       ncg     rms          rms(c)
DAV:   1    -0.175751626398E+03   -0.20199E-01   -0.11588E+01   352   0.114E+01    0.901E-01
DAV:   2    -0.175770310016E+03   -0.18684E-01   -0.24475E-01   432   0.166E+00    0.504E-01
DAV:   3    -0.175771520021E+03   -0.12100E-02   -0.65166E-03   408   0.311E-01    0.289E-01
DAV:   4    -0.175771377128E+03    0.14289E-03   -0.21725E-03   408   0.210E-01    0.142E-01
DAV:   5    -0.175771729293E+03   -0.35217E-03   -0.72182E-04   408   0.122E-01    0.567E-02
DAV:   6    -0.175771762353E+03   -0.33060E-04   -0.17445E-04   352   0.533E-02
   9 F= -.17577176E+03 E0= -.17577176E+03  d E =-.150141E+00  mag=     1.0000
       N       E                     dE             d eps       ncg     rms          rms(c)
DAV:   1    -0.175836370919E+03   -0.64642E-01   -0.22468E+00   352   0.512E+00    0.387E-01
DAV:   2    -0.175839640619E+03   -0.32697E-02   -0.39499E-02   432   0.668E-01    0.213E-01
DAV:   3    -0.175839969941E+03   -0.32932E-03   -0.12732E-03   416   0.141E-01    0.128E-01
DAV:   4    -0.175839967518E+03    0.24226E-05   -0.36971E-04   416   0.851E-02
  10 F= -.17583997E+03 E0= -.17583997E+03  d E =-.682052E-01  mag=     1.0000
       N       E                     dE             d eps       ncg     rms          rms(c)
DAV:   1    -0.175959256271E+03   -0.11929E+00   -0.20219E+01   352   0.153E+01    0.115E+00
DAV:   2    -0.175990249430E+03   -0.30993E-01   -0.36317E-01   432   0.202E+00    0.636E-01
DAV:   3    -0.175991933628E+03   -0.16842E-02   -0.11738E-02   416   0.423E-01    0.379E-01
DAV:   4    -0.175991767202E+03    0.16643E-03   -0.30717E-03   416   0.244E-01    0.178E-01
DAV:   5    -0.175992316389E+03   -0.54919E-03   -0.12665E-03   400   0.146E-01    0.758E-02
DAV:   6    -0.175992315464E+03    0.92553E-06   -0.37646E-04   392   0.771E-02
  11 F= -.17599232E+03 E0= -.17599232E+03  d E =-.220553E+00  mag=     1.0000
       N       E                     dE             d eps       ncg     rms          rms(c)
DAV:   1    -0.175921867638E+03    0.70449E-01   -0.81287E+01   352   0.306E+01    0.229E+00
DAV:   2    -0.176066513153E+03   -0.14465E+00   -0.16216E+00   432   0.416E+00    0.129E+00
DAV:   3    -0.176069380400E+03   -0.28672E-02   -0.45221E-02   416   0.869E-01    0.770E-01
DAV:   4    -0.176067976277E+03    0.14041E-02   -0.11010E-02   400   0.461E-01    0.345E-01
DAV:   5    -0.176069571004E+03   -0.15947E-02   -0.57997E-03   400   0.287E-01    0.162E-01
DAV:   6    -0.176069665969E+03   -0.94965E-04   -0.11100E-03   400   0.146E-01    0.110E-01
DAV:   7    -0.176069581761E+03    0.84207E-04   -0.25334E-04   416   0.646E-02
  12 F= -.17606958E+03 E0= -.17606958E+03  d E =-.297819E+00  mag=     1.0000
       N       E                     dE             d eps       ncg     rms          rms(c)
DAV:   1    -0.176147419831E+03   -0.77754E-01   -0.12311E+01   352   0.120E+01    0.866E-01
DAV:   2    -0.176168399266E+03   -0.20979E-01   -0.23713E-01   432   0.161E+00    0.500E-01
DAV:   3    -0.176168145273E+03    0.25399E-03   -0.50218E-03   400   0.307E-01    0.290E-01
DAV:   4    -0.176167942953E+03    0.20232E-03   -0.21035E-03   408   0.182E-01    0.115E-01
DAV:   5    -0.176168246121E+03   -0.30317E-03   -0.95385E-04   384   0.999E-02    0.663E-02
DAV:   6    -0.176168275414E+03   -0.29293E-04   -0.70567E-05   288   0.410E-02
  13 F= -.17616828E+03 E0= -.17616828E+03  d E =-.986937E-01  mag=     1.0000
       N       E                     dE             d eps       ncg     rms          rms(c)
DAV:   1    -0.176177896374E+03   -0.96503E-02   -0.28027E+01   352   0.181E+01    0.131E+00
DAV:   2    -0.176226046760E+03   -0.48150E-01   -0.54275E-01   432   0.244E+00    0.769E-01
DAV:   3    -0.176225274873E+03    0.77189E-03   -0.12210E-02   400   0.472E-01    0.450E-01
DAV:   4    -0.176224620456E+03    0.65442E-03   -0.51362E-03   408   0.282E-01    0.182E-01
DAV:   5    -0.176225325213E+03   -0.70476E-03   -0.24152E-03   384   0.160E-01    0.106E-01
DAV:   6    -0.176225420877E+03   -0.95664E-04   -0.21704E-04   352   0.629E-02
  14 F= -.17622542E+03 E0= -.17622542E+03  d E =-.155839E+00  mag=     1.0000
       N       E                     dE             d eps       ncg     rms          rms(c)
DAV:   1    -0.176277389358E+03   -0.52064E-01   -0.27643E+00   352   0.525E+00    0.472E-01
DAV:   2    -0.176282165083E+03   -0.47757E-02   -0.61097E-02   416   0.764E-01    0.242E-01
DAV:   3    -0.176282296966E+03   -0.13188E-03   -0.18135E-03   400   0.164E-01    0.140E-01
DAV:   4    -0.176282231233E+03    0.65734E-04   -0.44516E-04   384   0.984E-02
  15 F= -.17628223E+03 E0= -.17628223E+03  d E =-.568104E-01  mag=     1.0000
       N       E                     dE             d eps       ncg     rms          rms(c)
DAV:   1    -0.176302542321E+03   -0.20245E-01   -0.11188E+01   352   0.106E+01    0.953E-01
DAV:   2    -0.176321355135E+03   -0.18813E-01   -0.24611E-01   416   0.153E+00    0.504E-01
DAV:   3    -0.176321475837E+03   -0.12070E-03   -0.72697E-03   408   0.326E-01    0.290E-01
DAV:   4    -0.176321224738E+03    0.25110E-03   -0.20584E-03   408   0.205E-01    0.153E-01
DAV:   5    -0.176321347268E+03   -0.12253E-03   -0.72272E-04   400   0.119E-01    0.611E-02
DAV:   6    -0.176321361927E+03   -0.14659E-04   -0.24828E-04   384   0.571E-02
  16 F= -.17632136E+03 E0= -.17632136E+03  d E =-.959410E-01  mag=     1.0000
       N       E                     dE             d eps       ncg     rms          rms(c)
DAV:   1    -0.176353773448E+03   -0.32426E-01   -0.33297E+00   352   0.608E+00    0.510E-01
DAV:   2    -0.176359739172E+03   -0.59657E-02   -0.70135E-02   432   0.837E-01    0.278E-01
DAV:   3    -0.176359782427E+03   -0.43255E-04   -0.14782E-03   416   0.161E-01    0.163E-01
DAV:   4    -0.176359764320E+03    0.18107E-04   -0.59639E-04   416   0.106E-01
  17 F= -.17635976E+03 E0= -.17635976E+03  d E =-.384024E-01  mag=     1.0000
       N       E                     dE             d eps       ncg     rms          rms(c)
DAV:   1    -0.176367509252E+03   -0.77268E-02   -0.44656E+00   352   0.703E+00    0.594E-01
DAV:   2    -0.176375341503E+03   -0.78323E-02   -0.92613E-02   432   0.963E-01    0.322E-01
DAV:   3    -0.176375392078E+03   -0.50575E-04   -0.19569E-03   416   0.185E-01    0.187E-01
DAV:   4    -0.176375406824E+03   -0.14746E-04   -0.79941E-04   416   0.121E-01
  18 F= -.17637541E+03 E0= -.17637541E+03  d E =-.540449E-01  mag=     1.0000
       N       E                     dE             d eps       ncg     rms          rms(c)
DAV:   1    -0.176423669602E+03   -0.48278E-01   -0.38585E+00   352   0.667E+00    0.582E-01
DAV:   2    -0.176428770518E+03   -0.51009E-02   -0.79595E-02   432   0.974E-01    0.290E-01
DAV:   3    -0.176429093889E+03   -0.32337E-03   -0.31155E-03   400   0.208E-01    0.169E-01
DAV:   4    -0.176429089143E+03    0.47460E-05   -0.68642E-04   416   0.122E-01
  19 F= -.17642909E+03 E0= -.17642909E+03  d E =-.536823E-01  mag=     1.0000
       N       E                     dE             d eps       ncg     rms          rms(c)
DAV:   1    -0.176443144689E+03   -0.14051E-01   -0.34347E+00   352   0.629E+00    0.564E-01
DAV:   2    -0.176447391063E+03   -0.42464E-02   -0.69705E-02   432   0.924E-01    0.278E-01
DAV:   3    -0.176447618575E+03   -0.22751E-03   -0.29312E-03   400   0.204E-01    0.162E-01
DAV:   4    -0.176447618353E+03    0.22186E-06   -0.64352E-04   416   0.117E-01
  20 F= -.17644762E+03 E0= -.17644762E+03  d E =-.722115E-01  mag=     1.0000
       N       E                     dE             d eps       ncg     rms          rms(c)
DAV:   1    -0.176470502871E+03   -0.22884E-01   -0.38536E+00   352   0.670E+00    0.520E-01
DAV:   2    -0.176478113593E+03   -0.76107E-02   -0.97553E-02   432   0.992E-01    0.284E-01
DAV:   3    -0.176478165013E+03   -0.51420E-04   -0.18991E-03   400   0.184E-01    0.155E-01
DAV:   4    -0.176478224043E+03   -0.59030E-04   -0.86453E-04   416   0.123E-01
  21 F= -.17647822E+03 E0= -.17647822E+03  d E =-.306057E-01  mag=     1.0000
       N       E                     dE             d eps       ncg     rms          rms(c)
DAV:   1    -0.176479539391E+03   -0.13744E-02   -0.37259E-01   352   0.208E+00    0.171E-01
DAV:   2    -0.176480265858E+03   -0.72647E-03   -0.93826E-03   440   0.308E-01    0.100E-01
DAV:   3    -0.176480292736E+03   -0.26879E-04   -0.17066E-04   344   0.610E-02
  22 F= -.17648029E+03 E0= -.17648029E+03  d E =-.326744E-01  mag=     1.0000
       N       E                     dE             d eps       ncg     rms          rms(c)
DAV:   1    -0.176503979156E+03   -0.23713E-01   -0.29756E+00   352   0.593E+00    0.436E-01
DAV:   2    -0.176508618020E+03   -0.46389E-02   -0.55530E-02   440   0.777E-01    0.235E-01
DAV:   3    -0.176508495519E+03    0.12250E-03   -0.10359E-03   408   0.150E-01    0.134E-01
DAV:   4    -0.176508513680E+03   -0.18162E-04   -0.48381E-04   416   0.888E-02
  23 F= -.17650851E+03 E0= -.17650851E+03  d E =-.282209E-01  mag=     1.0000
       N       E                     dE             d eps       ncg     rms          rms(c)
DAV:   1    -0.176511925100E+03   -0.34296E-02   -0.14722E+01   352   0.132E+01    0.961E-01
DAV:   2    -0.176535374377E+03   -0.23449E-01   -0.27642E-01   440   0.173E+00    0.518E-01
DAV:   3    -0.176535113397E+03    0.26098E-03   -0.48324E-03   416   0.323E-01    0.294E-01
DAV:   4    -0.176535214407E+03   -0.10101E-03   -0.23638E-03   416   0.198E-01    0.124E-01
DAV:   5    -0.176535339212E+03   -0.12480E-03   -0.56767E-04   400   0.115E-01    0.583E-02
DAV:   6    -0.176535380125E+03   -0.40914E-04   -0.13506E-04   344   0.479E-02
  24 F= -.17653538E+03 E0= -.17653538E+03  d E =-.550874E-01  mag=     1.0000
       N       E                     dE             d eps       ncg     rms          rms(c)
DAV:   1    -0.176553118138E+03   -0.17779E-01   -0.25193E+00   352   0.550E+00    0.381E-01
DAV:   2    -0.176557267574E+03   -0.41494E-02   -0.50174E-02   432   0.749E-01    0.199E-01
DAV:   3    -0.176557217265E+03    0.50309E-04   -0.10562E-03   416   0.145E-01    0.114E-01
DAV:   4    -0.176557216119E+03    0.11467E-05   -0.31267E-04   416   0.793E-02
  25 F= -.17655722E+03 E0= -.17655722E+03  d E =-.218360E-01  mag=     1.0000
       N       E                     dE             d eps       ncg     rms          rms(c)
DAV:   1    -0.176559833664E+03   -0.26164E-02   -0.81690E+00   352   0.990E+00    0.689E-01
DAV:   2    -0.176573080503E+03   -0.13247E-01   -0.16179E-01   440   0.134E+00    0.358E-01
DAV:   3    -0.176572975684E+03    0.10482E-03   -0.34443E-03   416   0.260E-01    0.204E-01
DAV:   4    -0.176572950755E+03    0.24929E-04   -0.10061E-03   424   0.144E-01    0.892E-02
DAV:   5    -0.176573061751E+03   -0.11100E-03   -0.29213E-04   360   0.804E-02    0.361E-02
DAV:   6    -0.176573069191E+03   -0.74401E-05   -0.52367E-05   328   0.372E-02
  26 F= -.17657307E+03 E0= -.17657307E+03  d E =-.376891E-01  mag=     1.0000
       N       E                     dE             d eps       ncg     rms          rms(c)
DAV:   1    -0.176582259458E+03   -0.91977E-02   -0.21588E+00   352   0.499E+00    0.348E-01
DAV:   2    -0.176586280846E+03   -0.40214E-02   -0.46930E-02   432   0.700E-01    0.181E-01
DAV:   3    -0.176586361475E+03   -0.80629E-04   -0.75881E-04   416   0.121E-01
  27 F= -.17658636E+03 E0= -.17658636E+03  d E =-.132923E-01  mag=     1.0000
       N       E                     dE             d eps       ncg     rms          rms(c)
DAV:   1    -0.176587387502E+03   -0.11067E-02   -0.13805E+00   352   0.398E+00    0.287E-01
DAV:   2    -0.176589734870E+03   -0.23474E-02   -0.28272E-02   448   0.545E-01    0.155E-01
DAV:   3    -0.176589765967E+03   -0.31097E-04   -0.50915E-04   424   0.993E-02
  28 F= -.17658977E+03 E0= -.17658977E+03  d E =-.166968E-01  mag=     1.0000
       N       E                     dE             d eps       ncg     rms          rms(c)
DAV:   1    -0.176600606567E+03   -0.10872E-01   -0.23970E+00   352   0.520E+00    0.362E-01
DAV:   2    -0.176604495431E+03   -0.38889E-02   -0.43183E-02   432   0.675E-01    0.189E-01
DAV:   3    -0.176604582631E+03   -0.87200E-04   -0.63558E-04   416   0.113E-01
  29 F= -.17660458E+03 E0= -.17660458E+03  d E =-.148167E-01  mag=     1.0000
       N       E                     dE             d eps       ncg     rms          rms(c)
DAV:   1    -0.176587204231E+03    0.17291E-01   -0.20618E+01   352   0.153E+01    0.106E+00
DAV:   2    -0.176621705285E+03   -0.34501E-01   -0.38374E-01   432   0.201E+00    0.553E-01
DAV:   3    -0.176622390316E+03   -0.68503E-03   -0.58909E-03   416   0.339E-01    0.313E-01
DAV:   4    -0.176622685825E+03   -0.29551E-03   -0.31925E-03   424   0.245E-01    0.138E-01
DAV:   5    -0.176623003599E+03   -0.31777E-03   -0.70843E-04   384   0.119E-01    0.609E-02
DAV:   6    -0.176623032473E+03   -0.28874E-04   -0.12449E-04   384   0.425E-02
  30 F= -.17662303E+03 E0= -.17662303E+03  d E =-.332665E-01  mag=     1.0000
       N       E                     dE             d eps       ncg     rms          rms(c)
DAV:   1    -0.176630519274E+03   -0.75157E-02   -0.26240E+00   352   0.540E+00    0.384E-01
DAV:   2    -0.176635148066E+03   -0.46288E-02   -0.51037E-02   416   0.726E-01    0.194E-01
DAV:   3    -0.176635302979E+03   -0.15491E-03   -0.74679E-04   400   0.121E-01    0.109E-01
DAV:   4    -0.176635336501E+03   -0.33522E-04   -0.35054E-04   416   0.827E-02
  31 F= -.17663534E+03 E0= -.17663534E+03  d E =-.123040E-01  mag=     1.0000
       N       E                     dE             d eps       ncg     rms          rms(c)
DAV:   1    -0.176628521347E+03    0.67816E-02   -0.96026E+00   352   0.103E+01    0.725E-01
DAV:   2    -0.176645389609E+03   -0.16868E-01   -0.18586E-01   424   0.138E+00    0.369E-01
DAV:   3    -0.176645874406E+03   -0.48480E-03   -0.26234E-03   400   0.227E-01    0.208E-01
DAV:   4    -0.176645954360E+03   -0.79955E-04   -0.13376E-03   416   0.159E-01    0.899E-02
DAV:   5    -0.176646096389E+03   -0.14203E-03   -0.29880E-04   368   0.805E-02    0.374E-02
DAV:   6    -0.176646109736E+03   -0.13348E-04   -0.53612E-05   312   0.301E-02
  32 F= -.17664611E+03 E0= -.17664611E+03  d E =-.230773E-01  mag=     1.0000
       N       E                     dE             d eps       ncg     rms          rms(c)
DAV:   1    -0.176652979223E+03   -0.68828E-02   -0.31501E+00   352   0.590E+00    0.407E-01
DAV:   2    -0.176658806259E+03   -0.58270E-02   -0.63733E-02   432   0.812E-01    0.202E-01
DAV:   3    -0.176658919506E+03   -0.11325E-03   -0.95285E-04   416   0.135E-01    0.114E-01
DAV:   4    -0.176658924888E+03   -0.53818E-05   -0.35857E-04   424   0.856E-02
  33 F= -.17665892E+03 E0= -.17665892E+03  d E =-.128152E-01  mag=     1.0000
       N       E                     dE             d eps       ncg     rms          rms(c)
DAV:   1    -0.176655763607E+03    0.31559E-02   -0.55710E+00   352   0.784E+00    0.547E-01
DAV:   2    -0.176665888920E+03   -0.10125E-01   -0.11177E-01   432   0.108E+00    0.272E-01
DAV:   3    -0.176666111504E+03   -0.22258E-03   -0.17438E-03   416   0.181E-01    0.153E-01
DAV:   4    -0.176666131015E+03   -0.19510E-04   -0.65207E-04   424   0.116E-01
  34 F= -.17666613E+03 E0= -.17666613E+03  d E =-.200213E-01  mag=     1.0000
       N       E                     dE             d eps       ncg     rms          rms(c)
DAV:   1    -0.176672453403E+03   -0.63419E-02   -0.40192E+00   352   0.659E+00    0.466E-01
DAV:   2    -0.176679514980E+03   -0.70616E-02   -0.76285E-02   432   0.872E-01    0.226E-01
DAV:   3    -0.176679712408E+03   -0.19743E-03   -0.10651E-03   416   0.145E-01    0.128E-01
DAV:   4    -0.176679752168E+03   -0.39761E-04   -0.45201E-04   416   0.981E-02
  35 F= -.17667975E+03 E0= -.17667975E+03  d E =-.136212E-01  mag=     1.0000
       N       E                     dE             d eps       ncg     rms          rms(c)
DAV:   1    -0.176682199360E+03   -0.24870E-02   -0.21399E+00   352   0.480E+00    0.341E-01
DAV:   2    -0.176685923771E+03   -0.37244E-02   -0.40521E-02   440   0.635E-01    0.165E-01
DAV:   3    -0.176686051207E+03   -0.12744E-03   -0.57809E-04   416   0.107E-01    0.930E-02
DAV:   4    -0.176686077346E+03   -0.26140E-04   -0.23421E-04   392   0.717E-02
  36 F= -.17668608E+03 E0= -.17668608E+03  d E =-.199463E-01  mag=     1.0000
       N       E                     dE             d eps       ncg     rms          rms(c)
DAV:   1    -0.176673707333E+03    0.12344E-01   -0.85639E+00   352   0.960E+00    0.666E-01
DAV:   2    -0.176688817089E+03   -0.15110E-01   -0.16336E-01   432   0.127E+00    0.327E-01
DAV:   3    -0.176689246784E+03   -0.42970E-03   -0.21829E-03   416   0.206E-01    0.184E-01
DAV:   4    -0.176689296483E+03   -0.49698E-04   -0.97007E-04   416   0.143E-01
  37 F= -.17668930E+03 E0= -.17668930E+03  d E =-.231655E-01  mag=     1.0000
       N       E                     dE             d eps       ncg     rms          rms(c)
DAV:   1    -0.176687970084E+03    0.12767E-02   -0.94387E-01   352   0.319E+00    0.205E-01
DAV:   2    -0.176689692213E+03   -0.17221E-02   -0.18533E-02   432   0.424E-01    0.106E-01
DAV:   3    -0.176689714191E+03   -0.21978E-04   -0.21284E-04   376   0.654E-02
  38 F= -.17668971E+03 E0= -.17668971E+03  d E =-.235832E-01  mag=     1.0000
       N       E                     dE             d eps       ncg     rms          rms(c)
DAV:   1    -0.176693830557E+03   -0.41383E-02   -0.47310E+00   352   0.720E+00    0.487E-01
DAV:   2    -0.176702430445E+03   -0.85999E-02   -0.91781E-02   424   0.962E-01    0.247E-01
DAV:   3    -0.176702750393E+03   -0.31995E-03   -0.13817E-03   416   0.160E-01    0.138E-01
DAV:   4    -0.176702778097E+03   -0.27704E-04   -0.57574E-04   384   0.104E-01
  39 F= -.17670278E+03 E0= -.17670278E+03  d E =-.130639E-01  mag=     1.0000
       N       E                     dE             d eps       ncg     rms          rms(c)
DAV:   1    -0.176699233183E+03    0.35172E-02   -0.52563E+00   352   0.757E+00    0.528E-01
DAV:   2    -0.176708442911E+03   -0.92097E-02   -0.99701E-02   432   0.101E+00    0.265E-01
DAV:   3    -0.176708792141E+03   -0.34923E-03   -0.15912E-03   416   0.172E-01    0.149E-01
DAV:   4    -0.176708893966E+03   -0.10183E-03   -0.66209E-04   384   0.112E-01    0.659E-02
DAV:   5    -0.176708979203E+03   -0.85237E-04   -0.14095E-04   336   0.534E-02
  40 F= -.17670898E+03 E0= -.17670898E+03  d E =-.192650E-01  mag=     1.0000
       N       E                     dE             d eps       ncg     rms          rms(c)
DAV:   1    -0.176713697572E+03   -0.48036E-02   -0.41577E+00   352   0.680E+00    0.471E-01
DAV:   2    -0.176721248449E+03   -0.75509E-02   -0.83513E-02   432   0.924E-01    0.231E-01
DAV:   3    -0.176721481780E+03   -0.23333E-03   -0.12073E-03   408   0.154E-01    0.129E-01
DAV:   4    -0.176721521871E+03   -0.40091E-04   -0.49911E-04   400   0.970E-02
  41 F= -.17672152E+03 E0= -.17672152E+03  d E =-.125427E-01  mag=     1.0000
       N       E                     dE             d eps       ncg     rms          rms(c)
DAV:   1    -0.176718354113E+03    0.31277E-02   -0.46042E+00   352   0.715E+00    0.504E-01
DAV:   2    -0.176726581675E+03   -0.82276E-02   -0.91719E-02   432   0.971E-01    0.246E-01
DAV:   3    -0.176726883040E+03   -0.30137E-03   -0.13890E-03   400   0.165E-01    0.138E-01
DAV:   4    -0.176726944214E+03   -0.61174E-04   -0.55524E-04   400   0.103E-01
  42 F= -.17672694E+03 E0= -.17672694E+03  d E =-.179650E-01  mag=     1.0000
       N       E                     dE             d eps       ncg     rms          rms(c)
DAV:   1    -0.176729855319E+03   -0.29723E-02   -0.21450E+00   352   0.485E+00    0.352E-01
DAV:   2    -0.176733614016E+03   -0.37587E-02   -0.41702E-02   432   0.659E-01    0.174E-01
DAV:   3    -0.176733741964E+03   -0.12795E-03   -0.67554E-04   400   0.111E-01    0.982E-02
DAV:   4    -0.176733776427E+03   -0.34463E-04   -0.28774E-04   400   0.744E-02
  43 F= -.17673378E+03 E0= -.17673378E+03  d E =-.683221E-02  mag=     1.0000
       N       E                     dE             d eps       ncg     rms          rms(c)
DAV:   1    -0.176734774712E+03   -0.10327E-02   -0.68786E-01   352   0.274E+00    0.202E-01
DAV:   2    -0.176735969426E+03   -0.11947E-02   -0.13333E-02   432   0.373E-01    0.101E-01
DAV:   3    -0.176736014269E+03   -0.44843E-04   -0.21618E-04   360   0.651E-02
  44 F= -.17673601E+03 E0= -.17673601E+03  d E =-.907005E-02  mag=     1.0000
       N       E                     dE             d eps       ncg     rms          rms(c)
DAV:   1    -0.176732183990E+03    0.37854E-02   -0.27378E+00   352   0.548E+00    0.390E-01
DAV:   2    -0.176736843793E+03   -0.46598E-02   -0.52402E-02   432   0.739E-01    0.198E-01
DAV:   3    -0.176736943915E+03   -0.10012E-03   -0.86324E-04   400   0.123E-01    0.112E-01
DAV:   4    -0.176736984263E+03   -0.40348E-04   -0.39592E-04   432   0.876E-02
  45 F= -.17673698E+03 E0= -.17673698E+03  d E =-.100400E-01  mag=     1.0000
       N       E                     dE             d eps       ncg     rms          rms(c)
DAV:   1    -0.176736596427E+03    0.34749E-03   -0.33712E-01   352   0.193E+00    0.122E-01
DAV:   2    -0.176737192824E+03   -0.59640E-03   -0.65966E-03   432   0.259E-01    0.628E-02
DAV:   3    -0.176737208781E+03   -0.15957E-04   -0.86223E-05   336   0.391E-02
  46 F= -.17673721E+03 E0= -.17673721E+03  d E =-.102646E-01  mag=     1.0000
       N       E                     dE             d eps       ncg     rms          rms(c)
DAV:   1    -0.176739231987E+03   -0.20392E-02   -0.20271E+00   352   0.471E+00    0.322E-01
DAV:   2    -0.176742945079E+03   -0.37131E-02   -0.38886E-02   432   0.623E-01    0.164E-01
DAV:   3    -0.176743092824E+03   -0.14774E-03   -0.48002E-04   384   0.100E-01    0.917E-02
DAV:   4    -0.176743108728E+03   -0.15904E-04   -0.24927E-04   400   0.695E-02
  47 F= -.17674311E+03 E0= -.17674311E+03  d E =-.589995E-02  mag=     1.0000
       N       E                     dE             d eps       ncg     rms          rms(c)
DAV:   1    -0.176734940098E+03    0.81527E-02   -0.73645E+00   352   0.896E+00    0.628E-01
DAV:   2    -0.176748121143E+03   -0.13181E-01   -0.13977E-01   432   0.118E+00    0.320E-01
DAV:   3    -0.176748633225E+03   -0.51208E-03   -0.18147E-03   400   0.193E-01    0.181E-01
DAV:   4    -0.176748753834E+03   -0.12061E-03   -0.96343E-04   416   0.135E-01    0.743E-02
DAV:   5    -0.176748869145E+03   -0.11531E-03   -0.21012E-04   336   0.678E-02    0.312E-02
DAV:   6    -0.176748876243E+03   -0.70976E-05   -0.36852E-05   272   0.268E-02
  48 F= -.17674888E+03 E0= -.17674888E+03  d E =-.116675E-01  mag=     1.0000
       N       E                     dE             d eps       ncg     rms          rms(c)
DAV:   1    -0.176750197158E+03   -0.13280E-02   -0.23801E+00   352   0.507E+00    0.364E-01
DAV:   2    -0.176754700569E+03   -0.45034E-02   -0.47996E-02   432   0.689E-01    0.188E-01
DAV:   3    -0.176754847801E+03   -0.14723E-03   -0.61677E-04   416   0.114E-01    0.107E-01
DAV:   4    -0.176754878110E+03   -0.30309E-04   -0.30595E-04   416   0.787E-02
  49 F= -.17675488E+03 E0= -.17675488E+03  d E =-.600187E-02  mag=     1.0000
       N       E                     dE             d eps       ncg     rms          rms(c)
DAV:   1    -0.176754954027E+03   -0.10623E-03   -0.19651E-01   352   0.146E+00    0.113E-01
DAV:   2    -0.176755318025E+03   -0.36400E-03   -0.38954E-03   432   0.198E-01    0.575E-02
DAV:   3    -0.176755337904E+03   -0.19879E-04   -0.56131E-05   320   0.352E-02
  50 F= -.17675534E+03 E0= -.17675534E+03  d E =-.646166E-02  mag=     1.0000
       N       E                     dE             d eps       ncg     rms          rms(c)
DAV:   1    -0.176756481837E+03   -0.11638E-02   -0.93049E-01   352   0.316E+00    0.239E-01
DAV:   2    -0.176758123402E+03   -0.16416E-02   -0.18322E-02   424   0.425E-01    0.117E-01
DAV:   3    -0.176758165990E+03   -0.42589E-04   -0.27910E-04   376   0.739E-02
  51 F= -.17675817E+03 E0= -.17675817E+03  d E =-.282809E-02  mag=     1.0000
       N       E                     dE             d eps       ncg     rms          rms(c)
DAV:   1    -0.176757692823E+03    0.43058E-03   -0.71641E-01   352   0.277E+00    0.215E-01
DAV:   2    -0.176758901867E+03   -0.12090E-02   -0.13719E-02   432   0.368E-01    0.108E-01
DAV:   3    -0.176758929694E+03   -0.27826E-04   -0.21970E-04   376   0.657E-02
  52 F= -.17675893E+03 E0= -.17675893E+03  d E =-.359179E-02  mag=     1.0000
       N       E                     dE             d eps       ncg     rms          rms(c)
DAV:   1    -0.176760339185E+03   -0.14373E-02   -0.62837E-01   352   0.266E+00    0.183E-01
DAV:   2    -0.176761406001E+03   -0.10668E-02   -0.11730E-02   432   0.349E-01    0.945E-02
DAV:   3    -0.176761422193E+03   -0.16192E-04   -0.16056E-04   352   0.594E-02
  53 F= -.17676142E+03 E0= -.17676142E+03  d E =-.249250E-02  mag=     1.0000
       N       E                     dE             d eps       ncg     rms          rms(c)
DAV:   1    -0.176754807593E+03    0.65984E-02   -0.56813E+00   352   0.799E+00    0.535E-01
DAV:   2    -0.176764840818E+03   -0.10033E-01   -0.10922E-01   432   0.106E+00    0.274E-01
DAV:   3    -0.176765019923E+03   -0.17910E-03   -0.14355E-03   416   0.173E-01    0.158E-01
DAV:   4    -0.176765050725E+03   -0.30802E-04   -0.81670E-04   416   0.126E-01
  54 F= -.17676505E+03 E0= -.17676505E+03  d E =-.612103E-02  mag=     1.0000
       N       E                     dE             d eps       ncg     rms          rms(c)
DAV:   1    -0.176766818363E+03   -0.17984E-02   -0.10473E+00   352   0.344E+00    0.240E-01
DAV:   2    -0.176768667514E+03   -0.18492E-02   -0.20325E-02   432   0.462E-01    0.123E-01
DAV:   3    -0.176768739557E+03   -0.72043E-04   -0.29519E-04   384   0.805E-02
  55 F= -.17676874E+03 E0= -.17676874E+03  d E =-.368883E-02  mag=     1.0000
       N       E                     dE             d eps       ncg     rms          rms(c)
DAV:   1    -0.176761555421E+03    0.71121E-02   -0.51407E+00   352   0.762E+00    0.510E-01
DAV:   2    -0.176770421351E+03   -0.88659E-02   -0.98247E-02   432   0.101E+00    0.269E-01
DAV:   3    -0.176770564433E+03   -0.14308E-03   -0.14240E-03   400   0.171E-01    0.154E-01
DAV:   4    -0.176770603692E+03   -0.39258E-04   -0.83690E-04   416   0.126E-01
  56 F= -.17677060E+03 E0= -.17677060E+03  d E =-.555297E-02  mag=     1.0000
       N       E                     dE             d eps       ncg     rms          rms(c)
DAV:   1    -0.176769749259E+03    0.81517E-03   -0.70264E-01   352   0.282E+00    0.169E-01
DAV:   2    -0.176770972350E+03   -0.12231E-02   -0.13496E-02   432   0.374E-01    0.929E-02
DAV:   3    -0.176770984377E+03   -0.12027E-04   -0.16932E-04   360   0.591E-02
  57 F= -.17677098E+03 E0= -.17677098E+03  d E =-.593365E-02  mag=     1.0000
       N       E                     dE             d eps       ncg     rms          rms(c)
DAV:   1    -0.176771449542E+03   -0.47719E-03   -0.13689E+00   352   0.390E+00    0.266E-01
DAV:   2    -0.176773898286E+03   -0.24487E-02   -0.26877E-02   424   0.527E-01    0.136E-01
DAV:   3    -0.176774001251E+03   -0.10297E-03   -0.42542E-04   416   0.914E-02    0.757E-02
DAV:   4    -0.176773994636E+03    0.66149E-05   -0.17745E-04   360   0.590E-02
  58 F= -.17677399E+03 E0= -.17677399E+03  d E =-.301026E-02  mag=     1.0000
       N       E                     dE             d eps       ncg     rms          rms(c)
DAV:   1    -0.176773823191E+03    0.17806E-03   -0.49075E-01   352   0.233E+00    0.170E-01
DAV:   2    -0.176774630882E+03   -0.80769E-03   -0.92601E-03   432   0.312E-01    0.861E-02
DAV:   3    -0.176774674514E+03   -0.43632E-04   -0.16565E-04   376   0.584E-02
  59 F= -.17677467E+03 E0= -.17677467E+03  d E =-.369014E-02  mag=     1.0000
       N       E                     dE             d eps       ncg     rms          rms(c)
DAV:   1    -0.176775494400E+03   -0.86352E-03   -0.63678E-01   352   0.270E+00    0.187E-01
DAV:   2    -0.176776554257E+03   -0.10599E-02   -0.12396E-02   448   0.364E-01    0.965E-02
DAV:   3    -0.176776565719E+03   -0.11461E-04   -0.19389E-04   376   0.646E-02
  60 F= -.17677657E+03 E0= -.17677657E+03  d E =-.189120E-02  mag=     1.0000
       N       E                     dE             d eps       ncg     rms          rms(c)
DAV:   1    -0.176776210518E+03    0.34374E-03   -0.54222E-01   352   0.248E+00    0.172E-01
DAV:   2    -0.176777091837E+03   -0.88132E-03   -0.10332E-02   448   0.332E-01    0.892E-02
DAV:   3    -0.176777099407E+03   -0.75700E-05   -0.15826E-04   352   0.597E-02
  61 F= -.17677710E+03 E0= -.17677710E+03  d E =-.242489E-02  mag=     1.0000
       N       E                     dE             d eps       ncg     rms          rms(c)
DAV:   1    -0.176777723373E+03   -0.63154E-03   -0.57330E-01   352   0.252E+00    0.173E-01
DAV:   2    -0.176778672563E+03   -0.94919E-03   -0.10486E-02   448   0.328E-01    0.906E-02
DAV:   3    -0.176778692738E+03   -0.20175E-04   -0.13011E-04   336   0.540E-02
  62 F= -.17677869E+03 E0= -.17677869E+03  d E =-.159333E-02  mag=     1.0000
       N       E                     dE             d eps       ncg     rms          rms(c)
DAV:   1    -0.176772299814E+03    0.63727E-02   -0.44931E+00   352   0.707E+00    0.474E-01
DAV:   2    -0.176780076830E+03   -0.77770E-02   -0.84364E-02   440   0.927E-01    0.247E-01
DAV:   3    -0.176780185333E+03   -0.10850E-03   -0.10250E-03   384   0.147E-01    0.142E-01
DAV:   4    -0.176780207218E+03   -0.21885E-04   -0.65072E-04   416   0.108E-01
  63 F= -.17678021E+03 E0= -.17678021E+03  d E =-.310781E-02  mag=     1.0000
       N       E                     dE             d eps       ncg     rms          rms(c)
DAV:   1    -0.176779727702E+03    0.45763E-03   -0.32143E-01   352   0.190E+00    0.114E-01
DAV:   2    -0.176780283986E+03   -0.55628E-03   -0.61354E-03   440   0.250E-01    0.641E-02
DAV:   3    -0.176780288163E+03   -0.41772E-05   -0.66803E-05   320   0.364E-02
  64 F= -.17678029E+03 E0= -.17678029E+03  d E =-.318876E-02  mag=     1.0000
       N       E                     dE             d eps       ncg     rms          rms(c)
DAV:   1    -0.176780616372E+03   -0.33239E-03   -0.86881E-01   352   0.311E+00    0.214E-01
DAV:   2    -0.176782142601E+03   -0.15262E-02   -0.17046E-02   432   0.417E-01    0.112E-01
DAV:   3    -0.176782197928E+03   -0.55327E-04   -0.27102E-04   392   0.759E-02
  65 F= -.17678220E+03 E0= -.17678220E+03  d E =-.190976E-02  mag=     1.0000
       N       E                     dE             d eps       ncg     rms          rms(c)
DAV:   1    -0.176782196952E+03   -0.54351E-04   -0.10035E-01   352   0.105E+00    0.851E-02
DAV:   2    -0.176782337283E+03   -0.14033E-03   -0.16965E-03   448   0.134E-01    0.465E-02
DAV:   3    -0.176782338649E+03   -0.13656E-05   -0.37986E-05   320   0.302E-02
  66 F= -.17678234E+03 E0= -.17678234E+03  d E =-.205049E-02  mag=     1.0000
       N       E                     dE             d eps       ncg     rms          rms(c)
DAV:   1    -0.176782736295E+03   -0.39901E-03   -0.29924E-01   352   0.185E+00    0.124E-01
DAV:   2    -0.176783235478E+03   -0.49918E-03   -0.55265E-03   432   0.242E-01    0.663E-02
DAV:   3    -0.176783236368E+03   -0.88966E-06   -0.70507E-05   328   0.419E-02
  67 F= -.17678324E+03 E0= -.17678324E+03  d E =-.897719E-03  mag=     1.0000
       N       E                     dE             d eps       ncg     rms          rms(c)
DAV:   1    -0.176781822248E+03    0.14132E-02   -0.12103E+00   352   0.373E+00    0.246E-01
DAV:   2    -0.176783832954E+03   -0.20107E-02   -0.22292E-02   432   0.485E-01    0.132E-01
DAV:   3    -0.176783835749E+03   -0.27950E-05   -0.29062E-04   392   0.832E-02
  68 F= -.17678384E+03 E0= -.17678384E+03  d E =-.149710E-02  mag=     1.0000
       N       E                     dE             d eps       ncg     rms          rms(c)
DAV:   1    -0.176784277050E+03   -0.44410E-03   -0.89414E-02   352   0.101E+00    0.825E-02
DAV:   2    -0.176784402949E+03   -0.12590E-03   -0.14565E-03   432   0.129E-01    0.446E-02
DAV:   3    -0.176784404529E+03   -0.15798E-05   -0.30926E-05   264   0.261E-02
  69 F= -.17678440E+03 E0= -.17678440E+03  d E =-.568779E-03  mag=     1.0000
       N       E                     dE             d eps       ncg     rms          rms(c)
DAV:   1    -0.176784258851E+03    0.14410E-03   -0.82892E-01   352   0.310E+00    0.208E-01
DAV:   2    -0.176785605385E+03   -0.13465E-02   -0.15125E-02   432   0.403E-01    0.109E-01
DAV:   3    -0.176785623693E+03   -0.18308E-04   -0.18773E-04   352   0.655E-02
  70 F= -.17678562E+03 E0= -.17678562E+03  d E =-.178794E-02  mag=     1.0000
       N       E                     dE             d eps       ncg     rms          rms(c)
DAV:   1    -0.176780860576E+03    0.47448E-02   -0.33078E+00   352   0.619E+00    0.415E-01
DAV:   2    -0.176786230698E+03   -0.53701E-02   -0.60130E-02   432   0.803E-01    0.219E-01
DAV:   3    -0.176786240194E+03   -0.94967E-05   -0.77347E-04   408   0.130E-01
  71 F= -.17678624E+03 E0= -.17678624E+03  d E =-.240445E-02  mag=     1.0000
       N       E                     dE             d eps       ncg     rms          rms(c)
DAV:   1    -0.176786611536E+03   -0.38084E-03   -0.30370E-01   352   0.188E+00    0.148E-01
DAV:   2    -0.176787036920E+03   -0.42538E-03   -0.52416E-03   448   0.250E-01    0.795E-02
DAV:   3    -0.176787037192E+03   -0.27258E-06   -0.14185E-04   344   0.519E-02
  72 F= -.17678704E+03 E0= -.17678704E+03  d E =-.796998E-03  mag=     1.0000
       N       E                     dE             d eps       ncg     rms          rms(c)
DAV:   1    -0.176786887217E+03    0.14970E-03   -0.18785E-01   352   0.148E+00    0.107E-01
DAV:   2    -0.176787169093E+03   -0.28188E-03   -0.34195E-03   440   0.196E-01    0.573E-02
DAV:   3    -0.176787171982E+03   -0.28889E-05   -0.63537E-05   320   0.363E-02
  73 F= -.17678717E+03 E0= -.17678717E+03  d E =-.931787E-03  mag=     1.0000
       N       E                     dE             d eps       ncg     rms          rms(c)
DAV:   1    -0.176787536574E+03   -0.36748E-03   -0.55898E-02   352   0.815E-01    0.540E-02
DAV:   2    -0.176787620997E+03   -0.84423E-04   -0.10020E-03   432   0.107E-01    0.290E-02
DAV:   3    -0.176787619217E+03    0.17801E-05   -0.17641E-05   224   0.193E-02
  74 F= -.17678762E+03 E0= -.17678762E+03  d E =-.447236E-03  mag=     1.0000
       N       E                     dE             d eps       ncg     rms          rms(c)
DAV:   1    -0.176787532502E+03    0.88495E-04   -0.33001E-01   352   0.198E+00    0.119E-01
DAV:   2    -0.176788060250E+03   -0.52775E-03   -0.61718E-03   448   0.262E-01    0.637E-02
DAV:   3    -0.176788046189E+03    0.14062E-04   -0.84963E-05   320   0.428E-02
  75 F= -.17678805E+03 E0= -.17678805E+03  d E =-.874207E-03  mag=     1.0000
       N       E                     dE             d eps       ncg     rms          rms(c)
DAV:   1    -0.176788408257E+03   -0.34801E-03   -0.46027E-02   352   0.738E-01    0.502E-02
DAV:   2    -0.176788470027E+03   -0.61770E-04   -0.77820E-04   448   0.963E-02
  76 F= -.17678847E+03 E0= -.17678847E+03  d E =-.423839E-03  mag=     1.0000
       N       E                     dE             d eps       ncg     rms          rms(c)
DAV:   1    -0.176788506644E+03   -0.98387E-04   -0.27560E-01   352   0.181E+00    0.116E-01
DAV:   2    -0.176788896890E+03   -0.39025E-03   -0.49014E-03   448   0.235E-01    0.639E-02
DAV:   3    -0.176788884487E+03    0.12402E-04   -0.87611E-05   320   0.454E-02
  77 F= -.17678888E+03 E0= -.17678888E+03  d E =-.838299E-03  mag=     1.0000
       N       E                     dE             d eps       ncg     rms          rms(c)
DAV:   1    -0.176789101658E+03   -0.20477E-03   -0.32525E-02   352   0.625E-01    0.425E-02
DAV:   2    -0.176789150486E+03   -0.48828E-04   -0.59224E-04   448   0.838E-02
  78 F= -.17678915E+03 E0= -.17678915E+03  d E =-.265999E-03  mag=     1.0000
       N       E                     dE             d eps       ncg     rms          rms(c)
DAV:   1    -0.176789192486E+03   -0.90827E-04   -0.52722E-02   352   0.797E-01    0.544E-02
DAV:   2    -0.176789266718E+03   -0.74233E-04   -0.98314E-04   448   0.106E-01
  79 F= -.17678927E+03 E0= -.17678927E+03  d E =-.382231E-03  mag=     1.0000
       N       E                     dE             d eps       ncg     rms          rms(c)
DAV:   1    -0.176789459209E+03   -0.26672E-03   -0.26466E-02   352   0.566E-01    0.448E-02
DAV:   2    -0.176789495816E+03   -0.36608E-04   -0.46697E-04   432   0.734E-02
  80 F= -.17678950E+03 E0= -.17678950E+03  d E =-.229098E-03  mag=     1.0000
       N       E                     dE             d eps       ncg     rms          rms(c)
DAV:   1    -0.176789503142E+03   -0.43934E-04   -0.11568E-01   352   0.118E+00    0.809E-02
DAV:   2    -0.176789677527E+03   -0.17438E-03   -0.20937E-03   448   0.154E-01    0.464E-02
DAV:   3    -0.176789673135E+03    0.43917E-05   -0.34225E-05   320   0.282E-02
  81 F= -.17678967E+03 E0= -.17678967E+03  d E =-.406417E-03  mag=     1.0000
       N       E                     dE             d eps       ncg     rms          rms(c)
DAV:   1    -0.176789823533E+03   -0.14601E-03   -0.19491E-02   352   0.485E-01    0.350E-02
DAV:   2    -0.176789850991E+03   -0.27458E-04   -0.33601E-04   384   0.636E-02
  82 F= -.17678985E+03 E0= -.17678985E+03  d E =-.177856E-03  mag=     1.0000
       N       E                     dE             d eps       ncg     rms          rms(c)
DAV:   1    -0.176789873489E+03   -0.49957E-04   -0.81048E-02   352   0.989E-01    0.715E-02
DAV:   2    -0.176789987575E+03   -0.11409E-03   -0.14689E-03   448   0.130E-01    0.402E-02
DAV:   3    -0.176789984755E+03    0.28193E-05   -0.26446E-05   304   0.248E-02
  83 F= -.17678998E+03 E0= -.17678998E+03  d E =-.311621E-03  mag=     1.0000
       N       E                     dE             d eps       ncg     rms          rms(c)
DAV:   1    -0.176790099535E+03   -0.11196E-03   -0.10926E-02   352   0.366E-01    0.289E-02
DAV:   2    -0.176790116402E+03   -0.16867E-04   -0.21214E-04   352   0.519E-02
  84 F= -.17679012E+03 E0= -.17679012E+03  d E =-.131646E-03  mag=     1.0000
       N       E                     dE             d eps       ncg     rms          rms(c)
DAV:   1    -0.176790145418E+03   -0.45883E-04   -0.20507E-02   352   0.502E-01    0.410E-02
DAV:   2    -0.176790174622E+03   -0.29204E-04   -0.39820E-04   432   0.687E-02
  85 F= -.17679017E+03 E0= -.17679017E+03  d E =-.189866E-03  mag=     1.0000
       N       E                     dE             d eps       ncg     rms          rms(c)
DAV:   1    -0.176790276079E+03   -0.13066E-03   -0.12245E-02   352   0.385E-01    0.364E-02
DAV:   2    -0.176790292006E+03   -0.15927E-04   -0.21612E-04   368   0.505E-02
  86 F= -.17679029E+03 E0= -.17679029E+03  d E =-.117385E-03  mag=     1.0000
