       N       E                     dE             d eps       ncg     rms          rms(c)
DAV:   1     0.124132756619E+03    0.12413E+03   -0.21414E+03    88   0.292E+02
DAV:   2     0.384302588963E+02   -0.85702E+02   -0.84204E+02    96   0.737E+01
DAV:   3    -0.400448663122E+01   -0.42435E+02   -0.37603E+02   112   0.574E+01
DAV:   4    -0.969754908429E+01   -0.56931E+01   -0.41858E+01    72   0.212E+01
DAV:   5    -0.980417845604E+01   -0.10663E+00   -0.10644E+00    96   0.275E+00    0.640E+00
DAV:   6    -0.948696639024E+01    0.31721E+00   -0.11588E+00    64   0.683E+00    0.301E+00
DAV:   7    -0.984860869110E+01   -0.36164E+00   -0.19890E-01    72   0.302E+00    0.148E+00
DAV:   8    -0.984561515261E+01    0.29935E-02   -0.72372E-02    64   0.159E+00    0.436E-01
DAV:   9    -0.985647400403E+01   -0.10859E-01   -0.56810E-03    64   0.483E-01    0.194E-01
DAV:  10    -0.985797604488E+01   -0.15020E-02   -0.82321E-04    64   0.197E-01    0.483E-02
DAV:  11    -0.985827590886E+01   -0.29986E-03   -0.71618E-05    64   0.533E-02    0.165E-02
DAV:  12    -0.985839904526E+01   -0.12314E-03   -0.18339E-05    64   0.260E-02    0.760E-03
DAV:  13    -0.985848547967E+01   -0.86434E-04   -0.43963E-06    72   0.110E-02
   1 F= -.98584855E+01 E0= -.98584855E+01  d E =-.985849E+01  mag=     2.0000
