    3    3  800    2
  0.1125000E+04  0.1500000E-08  0.1500000E-08  0.1500000E-08  0.5000000E-15
  1.000000000000000E-004
  CAR 
 unknown system                          
     16      1     16
 
  0.0000000E+00  0.0000000E+00  0.0000000E+00  0.1000000E+01
    1      -29.157805    -29.087998
    2      -28.150614    -28.064670
    3      -13.761944    -13.711775
    4      -12.630013    -12.564515
    5      -12.629758    -12.563835
    6      -12.573072    -12.520644
    7       -9.091390     -8.962029
    8       -9.090916     -8.961002
    9       -0.968948     -0.964349
   10       -0.593218     -0.549902
   11       -0.593080     -0.549371
   12        0.066873      0.064249
   13        0.492961      0.486586
   14        0.496564      0.488419
   15        0.510393      0.510379
   16        0.528599      0.517230
