   4   4   1   0
  0.3333385E+03  0.9223323E-09  0.9266297E-09  0.1560317E-08  0.5000000E-15
  1.000000000000000E-004
  CAR 
 unknown system                          
      2.74872306    -22.42854234  500     -5.09709812      1.00000000
    -22.429  0.0000E+00  0.0000E+00  0.0000E+00  0.0000E+00
    -22.378  0.0000E+00  0.0000E+00  0.0000E+00  0.0000E+00
    -22.328  0.0000E+00  0.0000E+00  0.0000E+00  0.0000E+00
    -22.277  0.0000E+00  0.0000E+00  0.0000E+00  0.0000E+00
    -22.227  0.0000E+00  0.0000E+00  0.0000E+00  0.0000E+00
    -22.176  0.0000E+00  0.0000E+00  0.0000E+00  0.0000E+00
    -22.126  0.0000E+00  0.0000E+00  0.0000E+00  0.0000E+00
    -22.075  0.0000E+00  0.0000E+00  0.0000E+00  0.0000E+00
    -22.025  0.0000E+00  0.0000E+00  0.0000E+00  0.0000E+00
    -21.974  0.0000E+00  0.0000E+00  0.0000E+00  0.0000E+00
    -21.924  0.0000E+00  0.0000E+00  0.0000E+00  0.0000E+00
    -21.874  0.0000E+00  0.0000E+00  0.0000E+00  0.0000E+00
    -21.823  0.0000E+00  0.0000E+00  0.0000E+00  0.0000E+00
    -21.773  0.0000E+00  0.0000E+00  0.0000E+00  0.0000E+00
    -21.722  0.0000E+00  0.0000E+00  0.0000E+00  0.0000E+00
    -21.672  0.0000E+00  0.0000E+00  0.0000E+00  0.0000E+00
    -21.621  0.0000E+00  0.0000E+00  0.0000E+00  0.0000E+00
    -21.571  0.0000E+00  0.0000E+00  0.0000E+00  0.0000E+00
    -21.520  0.0000E+00  0.0000E+00  0.0000E+00  0.0000E+00
    -21.470  0.0000E+00  0.0000E+00  0.0000E+00  0.0000E+00
    -21.419  0.0000E+00  0.0000E+00  0.0000E+00  0.0000E+00
    -21.369  0.0000E+00  0.0000E+00  0.0000E+00  0.0000E+00
    -21.319  0.0000E+00  0.0000E+00  0.0000E+00  0.0000E+00
    -21.268  0.0000E+00  0.0000E+00  0.0000E+00  0.0000E+00
    -21.218  0.0000E+00  0.0000E+00  0.0000E+00  0.0000E+00
    -21.167  0.0000E+00  0.0000E+00  0.0000E+00  0.0000E+00
    -21.117  0.0000E+00  0.0000E+00  0.0000E+00  0.0000E+00
    -21.066  0.0000E+00  0.0000E+00  0.0000E+00  0.0000E+00
    -21.016  0.0000E+00  0.0000E+00  0.0000E+00  0.0000E+00
    -20.965  0.0000E+00  0.0000E+00  0.0000E+00  0.0000E+00
    -20.915  0.0000E+00  0.0000E+00  0.0000E+00  0.0000E+00
    -20.864  0.0000E+00  0.0000E+00  0.0000E+00  0.0000E+00
    -20.814  0.0000E+00  0.0000E+00  0.0000E+00  0.0000E+00
    -20.764  0.0000E+00  0.0000E+00  0.0000E+00  0.0000E+00
    -20.713  0.0000E+00  0.0000E+00  0.0000E+00  0.0000E+00
    -20.663  0.0000E+00  0.0000E+00  0.0000E+00  0.0000E+00
    -20.612  0.0000E+00  0.0000E+00  0.0000E+00  0.0000E+00
    -20.562  0.0000E+00  0.0000E+00  0.0000E+00  0.0000E+00
    -20.511  0.0000E+00  0.0000E+00  0.0000E+00  0.0000E+00
    -20.461  0.0000E+00  0.0000E+00  0.0000E+00  0.0000E+00
    -20.410  0.0000E+00  0.0000E+00  0.1000E+01  0.1000E+01
    -20.360  0.0000E+00  0.0000E+00  0.1000E+01  0.1000E+01
    -20.309  0.0000E+00  0.0000E+00  0.1000E+01  0.1000E+01
    -20.259  0.0000E+00  0.0000E+00  0.1000E+01  0.1000E+01
    -20.209  0.0000E+00  0.1110E+04  0.1000E+01  0.2298E+01
    -20.158  0.0000E+00  0.0000E+00  0.3000E+01  0.3000E+01
    -20.108  0.0000E+00  0.0000E+00  0.3000E+01  0.3000E+01
    -20.057  0.0000E+00  0.0000E+00  0.3000E+01  0.3000E+01
    -20.007  0.0000E+00  0.0000E+00  0.3000E+01  0.3000E+01
    -19.956  0.0000E+00  0.0000E+00  0.3000E+01  0.3000E+01
    -19.906  0.0000E+00  0.0000E+00  0.3000E+01  0.3000E+01
    -19.855  0.0000E+00  0.0000E+00  0.3000E+01  0.3000E+01
    -19.805  0.0000E+00  0.0000E+00  0.3000E+01  0.3000E+01
    -19.754  0.0000E+00  0.0000E+00  0.3000E+01  0.3000E+01
    -19.704  0.0000E+00  0.0000E+00  0.3000E+01  0.3000E+01
    -19.653  0.0000E+00  0.0000E+00  0.3000E+01  0.3000E+01
    -19.603  0.0000E+00  0.0000E+00  0.3000E+01  0.3000E+01
    -19.553  0.0000E+00  0.0000E+00  0.3000E+01  0.3000E+01
    -19.502  0.0000E+00  0.0000E+00  0.3000E+01  0.3000E+01
    -19.452  0.0000E+00  0.0000E+00  0.3000E+01  0.3000E+01
    -19.401  0.0000E+00  0.0000E+00  0.3000E+01  0.3000E+01
    -19.351  0.0000E+00  0.0000E+00  0.3000E+01  0.3000E+01
    -19.300  0.0000E+00  0.0000E+00  0.3000E+01  0.3000E+01
    -19.250  0.0000E+00  0.0000E+00  0.3000E+01  0.3000E+01
    -19.199  0.0000E+00  0.0000E+00  0.3000E+01  0.3000E+01
    -19.149  0.0000E+00  0.0000E+00  0.3000E+01  0.3000E+01
    -19.098  0.0000E+00  0.0000E+00  0.3000E+01  0.3000E+01
    -19.048  0.0000E+00  0.0000E+00  0.3000E+01  0.3000E+01
    -18.998  0.0000E+00  0.0000E+00  0.3000E+01  0.3000E+01
    -18.947  0.0000E+00  0.0000E+00  0.3000E+01  0.3000E+01
    -18.897  0.0000E+00  0.0000E+00  0.3000E+01  0.3000E+01
    -18.846  0.0000E+00  0.0000E+00  0.3000E+01  0.3000E+01
    -18.796  0.0000E+00  0.0000E+00  0.3000E+01  0.3000E+01
    -18.745  0.0000E+00  0.0000E+00  0.3000E+01  0.3000E+01
    -18.695  0.0000E+00  0.0000E+00  0.3000E+01  0.3000E+01
    -18.644  0.0000E+00  0.0000E+00  0.3000E+01  0.3000E+01
    -18.594  0.0000E+00  0.0000E+00  0.3000E+01  0.3000E+01
    -18.543  0.0000E+00  0.0000E+00  0.3000E+01  0.3000E+01
    -18.493  0.0000E+00  0.0000E+00  0.3000E+01  0.3000E+01
    -18.443  0.0000E+00  0.0000E+00  0.3000E+01  0.3000E+01
    -18.392  0.0000E+00  0.0000E+00  0.3000E+01  0.3000E+01
    -18.342  0.0000E+00  0.0000E+00  0.3000E+01  0.3000E+01
    -18.291  0.0000E+00  0.0000E+00  0.3000E+01  0.3000E+01
    -18.241  0.0000E+00  0.0000E+00  0.3000E+01  0.3000E+01
    -18.190  0.0000E+00  0.0000E+00  0.3000E+01  0.3000E+01
    -18.140  0.0000E+00  0.0000E+00  0.3000E+01  0.3000E+01
    -18.089  0.0000E+00  0.0000E+00  0.3000E+01  0.3000E+01
    -18.039  0.0000E+00  0.0000E+00  0.3000E+01  0.3000E+01
    -17.988  0.0000E+00  0.0000E+00  0.3000E+01  0.3000E+01
    -17.938  0.0000E+00  0.0000E+00  0.3000E+01  0.3000E+01
    -17.888  0.0000E+00  0.0000E+00  0.3000E+01  0.3000E+01
    -17.837  0.0000E+00  0.0000E+00  0.3000E+01  0.3000E+01
    -17.787  0.0000E+00  0.0000E+00  0.3000E+01  0.3000E+01
    -17.736  0.0000E+00  0.0000E+00  0.3000E+01  0.3000E+01
    -17.686  0.0000E+00  0.0000E+00  0.3000E+01  0.3000E+01
    -17.635  0.0000E+00  0.0000E+00  0.3000E+01  0.3000E+01
    -17.585  0.0000E+00  0.0000E+00  0.3000E+01  0.3000E+01
    -17.534  0.0000E+00  0.0000E+00  0.3000E+01  0.3000E+01
    -17.484  0.0000E+00  0.0000E+00  0.3000E+01  0.3000E+01
    -17.433  0.0000E+00  0.0000E+00  0.3000E+01  0.3000E+01
    -17.383  0.0000E+00  0.0000E+00  0.3000E+01  0.3000E+01
    -17.333  0.0000E+00  0.0000E+00  0.3000E+01  0.3000E+01
    -17.282  0.0000E+00  0.0000E+00  0.3000E+01  0.3000E+01
    -17.232  0.0000E+00  0.0000E+00  0.3000E+01  0.3000E+01
    -17.181  0.0000E+00  0.0000E+00  0.3000E+01  0.3000E+01
    -17.131  0.0000E+00  0.0000E+00  0.3000E+01  0.3000E+01
    -17.080  0.0000E+00  0.0000E+00  0.3000E+01  0.3000E+01
    -17.030  0.0000E+00  0.0000E+00  0.3000E+01  0.3000E+01
    -16.979  0.0000E+00  0.0000E+00  0.3000E+01  0.3000E+01
    -16.929  0.0000E+00  0.0000E+00  0.3000E+01  0.3000E+01
    -16.878  0.0000E+00  0.0000E+00  0.3000E+01  0.3000E+01
    -16.828  0.0000E+00  0.0000E+00  0.3000E+01  0.3000E+01
    -16.778  0.0000E+00  0.0000E+00  0.3000E+01  0.3000E+01
    -16.727  0.0000E+00  0.0000E+00  0.3000E+01  0.3000E+01
    -16.677  0.0000E+00  0.0000E+00  0.3000E+01  0.3000E+01
    -16.626  0.0000E+00  0.0000E+00  0.3000E+01  0.3000E+01
    -16.576  0.0000E+00  0.0000E+00  0.3000E+01  0.3000E+01
    -16.525  0.0000E+00  0.0000E+00  0.3000E+01  0.3000E+01
    -16.475  0.0000E+00  0.0000E+00  0.3000E+01  0.3000E+01
    -16.424  0.0000E+00  0.0000E+00  0.3000E+01  0.3000E+01
    -16.374  0.0000E+00  0.0000E+00  0.3000E+01  0.3000E+01
    -16.323  0.0000E+00  0.0000E+00  0.3000E+01  0.3000E+01
    -16.273  0.0000E+00  0.0000E+00  0.3000E+01  0.3000E+01
    -16.223  0.0000E+00  0.0000E+00  0.3000E+01  0.3000E+01
    -16.172  0.0000E+00  0.0000E+00  0.3000E+01  0.3000E+01
    -16.122  0.0000E+00  0.0000E+00  0.3000E+01  0.3000E+01
    -16.071  0.0000E+00  0.0000E+00  0.3000E+01  0.3000E+01
    -16.021  0.0000E+00  0.0000E+00  0.3000E+01  0.3000E+01
    -15.970  0.0000E+00  0.0000E+00  0.3000E+01  0.3000E+01
    -15.920  0.0000E+00  0.0000E+00  0.3000E+01  0.3000E+01
    -15.869  0.0000E+00  0.0000E+00  0.3000E+01  0.3000E+01
    -15.819  0.0000E+00  0.0000E+00  0.3000E+01  0.3000E+01
    -15.768  0.0000E+00  0.0000E+00  0.3000E+01  0.3000E+01
    -15.718  0.0000E+00  0.0000E+00  0.3000E+01  0.3000E+01
    -15.668  0.0000E+00  0.0000E+00  0.3000E+01  0.3000E+01
    -15.617  0.0000E+00  0.0000E+00  0.3000E+01  0.3000E+01
    -15.567  0.0000E+00  0.0000E+00  0.3000E+01  0.3000E+01
    -15.516  0.0000E+00  0.0000E+00  0.3000E+01  0.3000E+01
    -15.466  0.0000E+00  0.0000E+00  0.3000E+01  0.3000E+01
    -15.415  0.0000E+00  0.0000E+00  0.3000E+01  0.3000E+01
    -15.365  0.0000E+00  0.0000E+00  0.3000E+01  0.3000E+01
    -15.314  0.0000E+00  0.0000E+00  0.3000E+01  0.3000E+01
    -15.264  0.0000E+00  0.0000E+00  0.3000E+01  0.3000E+01
    -15.213  0.0000E+00  0.0000E+00  0.3000E+01  0.3000E+01
    -15.163  0.0000E+00  0.0000E+00  0.3000E+01  0.3000E+01
    -15.113  0.0000E+00  0.0000E+00  0.3000E+01  0.3000E+01
    -15.062  0.0000E+00  0.0000E+00  0.3000E+01  0.3000E+01
    -15.012  0.0000E+00  0.0000E+00  0.3000E+01  0.3000E+01
    -14.961  0.0000E+00  0.0000E+00  0.3000E+01  0.3000E+01
    -14.911  0.0000E+00  0.0000E+00  0.3000E+01  0.3000E+01
    -14.860  0.0000E+00  0.0000E+00  0.3000E+01  0.3000E+01
    -14.810  0.0000E+00  0.0000E+00  0.3000E+01  0.3000E+01
    -14.759  0.0000E+00  0.0000E+00  0.3000E+01  0.3000E+01
    -14.709  0.0000E+00  0.0000E+00  0.3000E+01  0.3000E+01
    -14.658  0.0000E+00  0.0000E+00  0.3000E+01  0.3000E+01
    -14.608  0.0000E+00  0.0000E+00  0.3000E+01  0.3000E+01
    -14.557  0.0000E+00  0.0000E+00  0.3000E+01  0.3000E+01
    -14.507  0.0000E+00  0.0000E+00  0.3000E+01  0.3000E+01
    -14.457  0.0000E+00  0.0000E+00  0.3000E+01  0.3000E+01
    -14.406  0.0000E+00  0.0000E+00  0.3000E+01  0.3000E+01
    -14.356  0.0000E+00  0.0000E+00  0.3000E+01  0.3000E+01
    -14.305  0.0000E+00  0.0000E+00  0.3000E+01  0.3000E+01
    -14.255  0.0000E+00  0.0000E+00  0.3000E+01  0.3000E+01
    -14.204  0.0000E+00  0.0000E+00  0.3000E+01  0.3000E+01
    -14.154  0.0000E+00  0.0000E+00  0.3000E+01  0.3000E+01
    -14.103  0.0000E+00  0.0000E+00  0.3000E+01  0.3000E+01
    -14.053  0.0000E+00  0.0000E+00  0.3000E+01  0.3000E+01
    -14.002  0.0000E+00  0.0000E+00  0.3000E+01  0.3000E+01
    -13.952  0.0000E+00  0.0000E+00  0.3000E+01  0.3000E+01
    -13.902  0.0000E+00  0.0000E+00  0.3000E+01  0.3000E+01
    -13.851  0.0000E+00  0.0000E+00  0.3000E+01  0.3000E+01
    -13.801  0.0000E+00  0.0000E+00  0.3000E+01  0.3000E+01
    -13.750  0.0000E+00  0.0000E+00  0.3000E+01  0.3000E+01
    -13.700  0.0000E+00  0.0000E+00  0.3000E+01  0.3000E+01
    -13.649  0.0000E+00  0.0000E+00  0.3000E+01  0.3000E+01
    -13.599  0.0000E+00  0.0000E+00  0.3000E+01  0.3000E+01
    -13.548  0.0000E+00  0.0000E+00  0.3000E+01  0.3000E+01
    -13.498  0.0000E+00  0.0000E+00  0.3000E+01  0.3000E+01
    -13.447  0.0000E+00  0.0000E+00  0.3000E+01  0.3000E+01
    -13.397  0.0000E+00  0.0000E+00  0.3000E+01  0.3000E+01
    -13.347  0.0000E+00  0.0000E+00  0.3000E+01  0.3000E+01
    -13.296  0.0000E+00  0.0000E+00  0.3000E+01  0.3000E+01
    -13.246  0.0000E+00  0.0000E+00  0.3000E+01  0.3000E+01
    -13.195  0.0000E+00  0.0000E+00  0.3000E+01  0.3000E+01
    -13.145  0.0000E+00  0.0000E+00  0.3000E+01  0.3000E+01
    -13.094  0.0000E+00  0.0000E+00  0.3000E+01  0.3000E+01
    -13.044  0.0000E+00  0.0000E+00  0.3000E+01  0.3000E+01
    -12.993  0.0000E+00  0.0000E+00  0.3000E+01  0.3000E+01
    -12.943  0.0000E+00  0.0000E+00  0.3000E+01  0.3000E+01
    -12.892  0.0000E+00  0.0000E+00  0.3000E+01  0.3000E+01
    -12.842  0.0000E+00  0.0000E+00  0.3000E+01  0.3000E+01
    -12.792  0.0000E+00  0.0000E+00  0.3000E+01  0.3000E+01
    -12.741  0.0000E+00  0.0000E+00  0.3000E+01  0.3000E+01
    -12.691  0.0000E+00  0.0000E+00  0.3000E+01  0.3000E+01
    -12.640  0.0000E+00  0.0000E+00  0.3000E+01  0.3000E+01
    -12.590  0.0000E+00  0.0000E+00  0.3000E+01  0.3000E+01
    -12.539  0.0000E+00  0.0000E+00  0.3000E+01  0.3000E+01
    -12.489  0.0000E+00  0.0000E+00  0.3000E+01  0.3000E+01
    -12.438  0.0000E+00  0.0000E+00  0.3000E+01  0.3000E+01
    -12.388  0.0000E+00  0.0000E+00  0.3000E+01  0.3000E+01
    -12.337  0.0000E+00  0.0000E+00  0.3000E+01  0.3000E+01
    -12.287  0.0000E+00  0.0000E+00  0.3000E+01  0.3000E+01
    -12.237  0.0000E+00  0.0000E+00  0.3000E+01  0.3000E+01
    -12.186  0.0000E+00  0.0000E+00  0.3000E+01  0.3000E+01
    -12.136  0.0000E+00  0.0000E+00  0.3000E+01  0.3000E+01
    -12.085  0.0000E+00  0.0000E+00  0.3000E+01  0.3000E+01
    -12.035  0.0000E+00  0.0000E+00  0.3000E+01  0.3000E+01
    -11.984  0.0000E+00  0.0000E+00  0.3000E+01  0.3000E+01
    -11.934  0.0000E+00  0.0000E+00  0.3000E+01  0.3000E+01
    -11.883  0.0000E+00  0.0000E+00  0.3000E+01  0.3000E+01
    -11.833  0.0000E+00  0.0000E+00  0.3000E+01  0.3000E+01
    -11.782  0.0000E+00  0.0000E+00  0.3000E+01  0.3000E+01
    -11.732  0.0000E+00  0.0000E+00  0.3000E+01  0.3000E+01
    -11.682  0.0000E+00  0.0000E+00  0.3000E+01  0.3000E+01
    -11.631  0.0000E+00  0.0000E+00  0.3000E+01  0.3000E+01
    -11.581  0.0000E+00  0.0000E+00  0.3000E+01  0.3000E+01
    -11.530  0.0000E+00  0.0000E+00  0.3000E+01  0.3000E+01
    -11.480  0.0000E+00  0.0000E+00  0.3000E+01  0.3000E+01
    -11.429  0.0000E+00  0.0000E+00  0.3000E+01  0.3000E+01
    -11.379  0.0000E+00  0.0000E+00  0.3000E+01  0.3000E+01
    -11.328  0.0000E+00  0.0000E+00  0.3000E+01  0.3000E+01
    -11.278  0.0000E+00  0.0000E+00  0.3000E+01  0.3000E+01
    -11.227  0.0000E+00  0.0000E+00  0.3000E+01  0.3000E+01
    -11.177  0.0000E+00  0.0000E+00  0.3000E+01  0.3000E+01
    -11.127  0.0000E+00  0.0000E+00  0.3000E+01  0.3000E+01
    -11.076  0.0000E+00  0.0000E+00  0.3000E+01  0.3000E+01
    -11.026  0.0000E+00  0.0000E+00  0.3000E+01  0.3000E+01
    -10.975  0.0000E+00  0.0000E+00  0.3000E+01  0.3000E+01
    -10.925  0.0000E+00  0.0000E+00  0.3000E+01  0.3000E+01
    -10.874  0.0000E+00  0.0000E+00  0.3000E+01  0.3000E+01
    -10.824  0.0000E+00  0.0000E+00  0.3000E+01  0.3000E+01
    -10.773  0.0000E+00  0.0000E+00  0.3000E+01  0.3000E+01
    -10.723  0.0000E+00  0.0000E+00  0.3000E+01  0.3000E+01
    -10.672  0.0000E+00  0.0000E+00  0.3000E+01  0.3000E+01
    -10.622  0.0000E+00  0.0000E+00  0.3000E+01  0.3000E+01
    -10.572  0.0000E+00  0.0000E+00  0.3000E+01  0.3000E+01
    -10.521  0.0000E+00  0.0000E+00  0.3000E+01  0.3000E+01
    -10.471  0.0000E+00  0.0000E+00  0.3000E+01  0.3000E+01
    -10.420  0.0000E+00  0.0000E+00  0.3000E+01  0.3000E+01
    -10.370  0.0000E+00  0.0000E+00  0.3000E+01  0.3000E+01
    -10.319  0.0000E+00  0.0000E+00  0.3000E+01  0.3000E+01
    -10.269  0.0000E+00  0.0000E+00  0.3000E+01  0.3000E+01
    -10.218  0.0000E+00  0.0000E+00  0.3000E+01  0.3000E+01
    -10.168  0.0000E+00  0.0000E+00  0.3000E+01  0.3000E+01
    -10.117  0.0000E+00  0.0000E+00  0.5000E+01  0.3000E+01
    -10.067  0.0000E+00  0.0000E+00  0.5000E+01  0.3000E+01
    -10.017  0.0000E+00  0.9263E+02  0.6000E+01  0.4673E+01
     -9.966  0.0000E+00  0.0000E+00  0.6000E+01  0.5000E+01
     -9.916  0.0000E+00  0.0000E+00  0.6000E+01  0.6000E+01
     -9.865  0.0000E+00  0.0000E+00  0.6000E+01  0.6000E+01
     -9.815  0.0000E+00  0.0000E+00  0.6000E+01  0.6000E+01
     -9.764  0.0000E+00  0.0000E+00  0.6000E+01  0.6000E+01
     -9.714  0.0000E+00  0.0000E+00  0.6000E+01  0.6000E+01
     -9.663  0.0000E+00  0.0000E+00  0.6000E+01  0.6000E+01
     -9.613  0.0000E+00  0.0000E+00  0.6000E+01  0.6000E+01
     -9.562  0.0000E+00  0.0000E+00  0.6000E+01  0.6000E+01
     -9.512  0.0000E+00  0.0000E+00  0.6000E+01  0.6000E+01
     -9.461  0.0000E+00  0.0000E+00  0.6000E+01  0.6000E+01
     -9.411  0.0000E+00  0.0000E+00  0.6000E+01  0.6000E+01
     -9.361  0.0000E+00  0.0000E+00  0.6000E+01  0.6000E+01
     -9.310  0.0000E+00  0.0000E+00  0.6000E+01  0.6000E+01
     -9.260  0.0000E+00  0.0000E+00  0.6000E+01  0.6000E+01
     -9.209  0.0000E+00  0.0000E+00  0.6000E+01  0.6000E+01
     -9.159  0.0000E+00  0.0000E+00  0.6000E+01  0.6000E+01
     -9.108  0.0000E+00  0.0000E+00  0.6000E+01  0.6000E+01
     -9.058  0.0000E+00  0.0000E+00  0.6000E+01  0.6000E+01
     -9.007  0.0000E+00  0.0000E+00  0.6000E+01  0.6000E+01
     -8.957  0.1551E+03  0.0000E+00  0.7094E+01  0.6000E+01
     -8.906  0.0000E+00  0.0000E+00  0.8000E+01  0.6000E+01
     -8.856  0.0000E+00  0.8590E+02  0.8000E+01  0.6010E+01
     -8.806  0.0000E+00  0.0000E+00  0.8000E+01  0.8000E+01
     -8.755  0.0000E+00  0.0000E+00  0.8000E+01  0.8000E+01
     -8.705  0.0000E+00  0.0000E+00  0.8000E+01  0.8000E+01
     -8.654  0.0000E+00  0.0000E+00  0.8000E+01  0.8000E+01
     -8.604  0.0000E+00  0.0000E+00  0.8000E+01  0.8000E+01
     -8.553  0.0000E+00  0.0000E+00  0.8000E+01  0.8000E+01
     -8.503  0.0000E+00  0.0000E+00  0.8000E+01  0.8000E+01
     -8.452  0.0000E+00  0.0000E+00  0.8000E+01  0.8000E+01
     -8.402  0.0000E+00  0.0000E+00  0.8000E+01  0.8000E+01
     -8.351  0.0000E+00  0.0000E+00  0.8000E+01  0.8000E+01
     -8.301  0.0000E+00  0.0000E+00  0.8000E+01  0.8000E+01
     -8.251  0.0000E+00  0.0000E+00  0.9000E+01  0.8000E+01
     -8.200  0.0000E+00  0.0000E+00  0.1100E+02  0.8000E+01
     -8.150  0.0000E+00  0.0000E+00  0.1100E+02  0.1100E+02
     -8.099  0.0000E+00  0.0000E+00  0.1100E+02  0.1100E+02
     -8.049  0.0000E+00  0.0000E+00  0.1100E+02  0.1100E+02
     -7.998  0.0000E+00  0.0000E+00  0.1100E+02  0.1100E+02
     -7.948  0.0000E+00  0.0000E+00  0.1100E+02  0.1100E+02
     -7.897  0.0000E+00  0.0000E+00  0.1100E+02  0.1100E+02
     -7.847  0.0000E+00  0.0000E+00  0.1100E+02  0.1100E+02
     -7.796  0.0000E+00  0.0000E+00  0.1100E+02  0.1100E+02
     -7.746  0.0000E+00  0.9094E+02  0.1100E+02  0.1106E+02
     -7.696  0.1033E+03  0.0000E+00  0.1116E+02  0.1200E+02
     -7.645  0.0000E+00  0.0000E+00  0.1200E+02  0.1200E+02
     -7.595  0.0000E+00  0.0000E+00  0.1200E+02  0.1200E+02
     -7.544  0.0000E+00  0.0000E+00  0.1200E+02  0.1200E+02
     -7.494  0.0000E+00  0.0000E+00  0.1200E+02  0.1200E+02
     -7.443  0.0000E+00  0.0000E+00  0.1200E+02  0.1200E+02
     -7.393  0.0000E+00  0.0000E+00  0.1200E+02  0.1200E+02
     -7.342  0.0000E+00  0.0000E+00  0.1200E+02  0.1200E+02
     -7.292  0.0000E+00  0.0000E+00  0.1200E+02  0.1200E+02
     -7.241  0.0000E+00  0.0000E+00  0.1200E+02  0.1200E+02
     -7.191  0.0000E+00  0.0000E+00  0.1200E+02  0.1200E+02
     -7.141  0.0000E+00  0.0000E+00  0.1200E+02  0.1200E+02
     -7.090  0.0000E+00  0.0000E+00  0.1200E+02  0.1200E+02
     -7.040  0.0000E+00  0.0000E+00  0.1200E+02  0.1200E+02
     -6.989  0.0000E+00  0.0000E+00  0.1200E+02  0.1200E+02
     -6.939  0.0000E+00  0.0000E+00  0.1200E+02  0.1200E+02
     -6.888  0.0000E+00  0.0000E+00  0.1200E+02  0.1200E+02
     -6.838  0.0000E+00  0.0000E+00  0.1200E+02  0.1200E+02
     -6.787  0.0000E+00  0.0000E+00  0.1200E+02  0.1200E+02
     -6.737  0.0000E+00  0.0000E+00  0.1200E+02  0.1200E+02
     -6.686  0.0000E+00  0.0000E+00  0.1200E+02  0.1200E+02
     -6.636  0.0000E+00  0.0000E+00  0.1200E+02  0.1200E+02
     -6.586  0.0000E+00  0.0000E+00  0.1200E+02  0.1200E+02
     -6.535  0.0000E+00  0.0000E+00  0.1200E+02  0.1200E+02
     -6.485  0.0000E+00  0.0000E+00  0.1200E+02  0.1200E+02
     -6.434  0.0000E+00  0.0000E+00  0.1200E+02  0.1200E+02
     -6.384  0.0000E+00  0.0000E+00  0.1200E+02  0.1200E+02
     -6.333  0.0000E+00  0.0000E+00  0.1200E+02  0.1200E+02
     -6.283  0.0000E+00  0.0000E+00  0.1200E+02  0.1200E+02
     -6.232  0.0000E+00  0.0000E+00  0.1200E+02  0.1200E+02
     -6.182  0.0000E+00  0.0000E+00  0.1200E+02  0.1200E+02
     -6.131  0.0000E+00  0.0000E+00  0.1200E+02  0.1200E+02
     -6.081  0.0000E+00  0.0000E+00  0.1300E+02  0.1200E+02
     -6.031  0.0000E+00  0.0000E+00  0.1300E+02  0.1200E+02
     -5.980  0.0000E+00  0.0000E+00  0.1300E+02  0.1200E+02
     -5.930  0.0000E+00  0.0000E+00  0.1300E+02  0.1200E+02
     -5.879  0.0000E+00  0.0000E+00  0.1300E+02  0.1200E+02
     -5.829  0.0000E+00  0.0000E+00  0.1300E+02  0.1200E+02
     -5.778  0.0000E+00  0.0000E+00  0.1300E+02  0.1200E+02
     -5.728  0.0000E+00  0.0000E+00  0.1300E+02  0.1200E+02
     -5.677  0.0000E+00  0.0000E+00  0.1300E+02  0.1200E+02
     -5.627  0.0000E+00  0.0000E+00  0.1300E+02  0.1200E+02
     -5.576  0.0000E+00  0.0000E+00  0.1300E+02  0.1200E+02
     -5.526  0.0000E+00  0.0000E+00  0.1300E+02  0.1200E+02
     -5.476  0.0000E+00  0.0000E+00  0.1300E+02  0.1200E+02
     -5.425  0.0000E+00  0.0000E+00  0.1500E+02  0.1200E+02
     -5.375  0.0000E+00  0.0000E+00  0.1500E+02  0.1200E+02
     -5.324  0.0000E+00  0.0000E+00  0.1500E+02  0.1200E+02
     -5.274  0.0000E+00  0.0000E+00  0.1500E+02  0.1200E+02
     -5.223  0.0000E+00  0.0000E+00  0.1500E+02  0.1200E+02
     -5.173  0.0000E+00  0.0000E+00  0.1500E+02  0.1200E+02
     -5.122  0.0000E+00  0.3824E+03  0.1500E+02  0.1375E+02
     -5.072  0.0000E+00  0.0000E+00  0.1500E+02  0.1400E+02
     -5.021  0.0000E+00  0.0000E+00  0.1500E+02  0.1400E+02
     -4.971  0.0000E+00  0.0000E+00  0.1500E+02  0.1400E+02
     -4.921  0.0000E+00  0.0000E+00  0.1500E+02  0.1400E+02
     -4.870  0.0000E+00  0.0000E+00  0.1500E+02  0.1400E+02
     -4.820  0.0000E+00  0.0000E+00  0.1500E+02  0.1400E+02
     -4.769  0.0000E+00  0.0000E+00  0.1500E+02  0.1400E+02
     -4.719  0.0000E+00  0.0000E+00  0.1500E+02  0.1500E+02
     -4.668  0.0000E+00  0.0000E+00  0.1500E+02  0.1500E+02
     -4.618  0.0000E+00  0.0000E+00  0.1500E+02  0.1500E+02
     -4.567  0.0000E+00  0.0000E+00  0.1500E+02  0.1500E+02
     -4.517  0.0000E+00  0.0000E+00  0.1500E+02  0.1500E+02
     -4.466  0.0000E+00  0.0000E+00  0.1500E+02  0.1500E+02
     -4.416  0.0000E+00  0.0000E+00  0.1700E+02  0.1500E+02
     -4.365  0.0000E+00  0.0000E+00  0.1700E+02  0.1500E+02
     -4.315  0.0000E+00  0.0000E+00  0.1700E+02  0.1500E+02
     -4.265  0.0000E+00  0.0000E+00  0.1700E+02  0.1500E+02
     -4.214  0.0000E+00  0.0000E+00  0.1700E+02  0.1500E+02
     -4.164  0.0000E+00  0.0000E+00  0.1700E+02  0.1700E+02
     -4.113  0.0000E+00  0.0000E+00  0.1700E+02  0.1700E+02
     -4.063  0.0000E+00  0.0000E+00  0.1700E+02  0.1700E+02
     -4.012  0.0000E+00  0.0000E+00  0.1700E+02  0.1700E+02
     -3.962  0.0000E+00  0.0000E+00  0.1700E+02  0.1700E+02
     -3.911  0.0000E+00  0.0000E+00  0.1700E+02  0.1700E+02
     -3.861  0.0000E+00  0.0000E+00  0.1700E+02  0.1700E+02
     -3.810  0.0000E+00  0.0000E+00  0.1700E+02  0.1700E+02
     -3.760  0.0000E+00  0.0000E+00  0.1700E+02  0.1700E+02
     -3.710  0.0000E+00  0.0000E+00  0.1700E+02  0.1700E+02
     -3.659  0.0000E+00  0.0000E+00  0.1700E+02  0.1700E+02
     -3.609  0.0000E+00  0.0000E+00  0.1700E+02  0.1700E+02
     -3.558  0.0000E+00  0.0000E+00  0.1700E+02  0.1700E+02
     -3.508  0.0000E+00  0.0000E+00  0.1700E+02  0.1700E+02
     -3.457  0.0000E+00  0.0000E+00  0.1700E+02  0.1700E+02
     -3.407  0.0000E+00  0.0000E+00  0.1700E+02  0.1700E+02
     -3.356  0.0000E+00  0.0000E+00  0.1700E+02  0.1700E+02
     -3.306  0.0000E+00  0.0000E+00  0.1700E+02  0.1700E+02
     -3.255  0.0000E+00  0.0000E+00  0.1700E+02  0.1700E+02
     -3.205  0.0000E+00  0.0000E+00  0.1700E+02  0.1700E+02
     -3.155  0.0000E+00  0.0000E+00  0.1700E+02  0.1700E+02
     -3.104  0.0000E+00  0.0000E+00  0.1700E+02  0.1700E+02
     -3.054  0.0000E+00  0.0000E+00  0.1700E+02  0.1700E+02
     -3.003  0.0000E+00  0.0000E+00  0.1700E+02  0.1700E+02
     -2.953  0.0000E+00  0.0000E+00  0.1700E+02  0.1700E+02
     -2.902  0.0000E+00  0.0000E+00  0.1700E+02  0.1700E+02
     -2.852  0.0000E+00  0.0000E+00  0.1700E+02  0.1700E+02
     -2.801  0.0000E+00  0.0000E+00  0.1700E+02  0.1700E+02
     -2.751  0.0000E+00  0.0000E+00  0.1700E+02  0.1700E+02
     -2.700  0.0000E+00  0.0000E+00  0.1700E+02  0.1700E+02
     -2.650  0.0000E+00  0.0000E+00  0.1700E+02  0.1700E+02
     -2.600  0.0000E+00  0.0000E+00  0.1700E+02  0.1700E+02
     -2.549  0.0000E+00  0.0000E+00  0.1700E+02  0.1700E+02
     -2.499  0.0000E+00  0.0000E+00  0.1700E+02  0.1700E+02
     -2.448  0.0000E+00  0.0000E+00  0.1700E+02  0.1700E+02
     -2.398  0.0000E+00  0.0000E+00  0.1700E+02  0.1700E+02
     -2.347  0.0000E+00  0.0000E+00  0.1700E+02  0.1700E+02
     -2.297  0.0000E+00  0.0000E+00  0.1700E+02  0.1700E+02
     -2.246  0.0000E+00  0.0000E+00  0.1700E+02  0.1700E+02
     -2.196  0.0000E+00  0.0000E+00  0.1700E+02  0.1700E+02
     -2.145  0.0000E+00  0.0000E+00  0.1700E+02  0.1700E+02
     -2.095  0.0000E+00  0.0000E+00  0.1700E+02  0.1700E+02
     -2.045  0.0000E+00  0.0000E+00  0.1700E+02  0.1700E+02
     -1.994  0.0000E+00  0.0000E+00  0.1700E+02  0.1700E+02
     -1.944  0.0000E+00  0.0000E+00  0.1700E+02  0.1700E+02
     -1.893  0.0000E+00  0.0000E+00  0.1700E+02  0.1700E+02
     -1.843  0.0000E+00  0.0000E+00  0.1700E+02  0.1700E+02
     -1.792  0.0000E+00  0.0000E+00  0.1700E+02  0.1700E+02
     -1.742  0.0000E+00  0.0000E+00  0.1700E+02  0.1700E+02
     -1.691  0.0000E+00  0.0000E+00  0.1700E+02  0.1700E+02
     -1.641  0.0000E+00  0.0000E+00  0.1700E+02  0.1700E+02
     -1.590  0.0000E+00  0.0000E+00  0.1700E+02  0.1700E+02
     -1.540  0.0000E+00  0.0000E+00  0.1700E+02  0.1700E+02
     -1.490  0.0000E+00  0.0000E+00  0.1700E+02  0.1700E+02
     -1.439  0.0000E+00  0.0000E+00  0.1700E+02  0.1700E+02
     -1.389  0.0000E+00  0.0000E+00  0.1700E+02  0.1700E+02
     -1.338  0.0000E+00  0.0000E+00  0.1700E+02  0.1700E+02
     -1.288  0.0000E+00  0.0000E+00  0.1700E+02  0.1700E+02
     -1.237  0.0000E+00  0.0000E+00  0.1700E+02  0.1700E+02
     -1.187  0.0000E+00  0.0000E+00  0.1700E+02  0.1700E+02
     -1.136  0.0000E+00  0.0000E+00  0.1700E+02  0.1700E+02
     -1.086  0.0000E+00  0.0000E+00  0.1700E+02  0.1700E+02
     -1.035  0.0000E+00  0.0000E+00  0.1700E+02  0.1700E+02
     -0.985  0.3450E+01  0.0000E+00  0.1703E+02  0.1700E+02
     -0.935  0.4360E+01  0.0000E+00  0.1722E+02  0.1700E+02
     -0.884  0.1000E+02  0.0000E+00  0.1752E+02  0.1700E+02
     -0.834  0.4361E+01  0.0000E+00  0.1785E+02  0.1700E+02
     -0.783  0.0000E+00  0.0000E+00  0.1800E+02  0.1700E+02
     -0.733  0.0000E+00  0.1998E+01  0.1800E+02  0.1705E+02
     -0.682  0.0000E+00  0.2464E+01  0.1800E+02  0.1717E+02
     -0.632  0.0000E+00  0.2967E+01  0.1800E+02  0.1731E+02
     -0.581  0.0000E+00  0.4396E+01  0.1800E+02  0.1748E+02
     -0.531  0.0000E+00  0.3353E+01  0.1800E+02  0.1772E+02
     -0.480  0.0000E+00  0.2261E+01  0.1800E+02  0.1786E+02
     -0.430  0.0000E+00  0.1858E+01  0.1800E+02  0.1796E+02
     -0.380  0.0000E+00  0.0000E+00  0.1800E+02  0.1800E+02
     -0.329  0.0000E+00  0.0000E+00  0.1800E+02  0.1800E+02
     -0.279  0.0000E+00  0.0000E+00  0.1800E+02  0.1800E+02
     -0.228  0.0000E+00  0.0000E+00  0.1800E+02  0.1800E+02
     -0.178  0.0000E+00  0.0000E+00  0.1800E+02  0.1800E+02
     -0.127  0.0000E+00  0.0000E+00  0.1800E+02  0.1800E+02
     -0.077  0.0000E+00  0.0000E+00  0.1800E+02  0.1800E+02
     -0.026  0.0000E+00  0.0000E+00  0.1800E+02  0.1800E+02
      0.024  0.0000E+00  0.0000E+00  0.1800E+02  0.1800E+02
      0.075  0.0000E+00  0.0000E+00  0.1800E+02  0.1800E+02
      0.125  0.0000E+00  0.0000E+00  0.1800E+02  0.1800E+02
      0.175  0.3801E+01  0.0000E+00  0.1805E+02  0.1800E+02
      0.226  0.4724E+01  0.0000E+00  0.1827E+02  0.1800E+02
      0.276  0.5163E+01  0.1509E+01  0.1854E+02  0.1802E+02
      0.327  0.2932E+01  0.6170E+01  0.1876E+02  0.1822E+02
      0.377  0.1725E+01  0.1008E+02  0.1887E+02  0.1868E+02
      0.428  0.1718E+01  0.2201E+01  0.1894E+02  0.1891E+02
      0.478  0.4596E+01  0.8623E+00  0.1912E+02  0.1899E+02
      0.529  0.1005E+02  0.1175E+01  0.1938E+02  0.1900E+02
      0.579  0.5423E+01  0.9423E+01  0.1976E+02  0.1929E+02
      0.630  0.1683E+01  0.4076E+01  0.1995E+02  0.1967E+02
      0.680  0.2797E+00  0.7011E+01  0.2000E+02  0.1994E+02
      0.731  0.8242E-02  0.0000E+00  0.2000E+02  0.2000E+02
      0.781  0.0000E+00  0.0000E+00  0.2000E+02  0.2000E+02
      0.831  0.0000E+00  0.0000E+00  0.2000E+02  0.2000E+02
      0.882  0.0000E+00  0.0000E+00  0.2000E+02  0.2000E+02
      0.932  0.0000E+00  0.0000E+00  0.2000E+02  0.2000E+02
      0.983  0.0000E+00  0.0000E+00  0.2000E+02  0.2000E+02
      1.033  0.0000E+00  0.0000E+00  0.2000E+02  0.2000E+02
      1.084  0.0000E+00  0.0000E+00  0.2000E+02  0.2000E+02
      1.134  0.0000E+00  0.0000E+00  0.2000E+02  0.2000E+02
      1.185  0.0000E+00  0.0000E+00  0.2000E+02  0.2000E+02
      1.235  0.0000E+00  0.0000E+00  0.2000E+02  0.2000E+02
      1.286  0.0000E+00  0.0000E+00  0.2000E+02  0.2000E+02
      1.336  0.0000E+00  0.0000E+00  0.2000E+02  0.2000E+02
      1.386  0.0000E+00  0.0000E+00  0.2000E+02  0.2000E+02
      1.437  0.0000E+00  0.0000E+00  0.2000E+02  0.2000E+02
      1.487  0.0000E+00  0.0000E+00  0.2000E+02  0.2000E+02
      1.538  0.0000E+00  0.0000E+00  0.2000E+02  0.2000E+02
      1.588  0.0000E+00  0.0000E+00  0.2000E+02  0.2000E+02
      1.639  0.0000E+00  0.0000E+00  0.2000E+02  0.2000E+02
      1.689  0.0000E+00  0.0000E+00  0.2000E+02  0.2000E+02
      1.740  0.0000E+00  0.0000E+00  0.2000E+02  0.2000E+02
      1.790  0.0000E+00  0.0000E+00  0.2000E+02  0.2000E+02
      1.841  0.0000E+00  0.0000E+00  0.2000E+02  0.2000E+02
      1.891  0.0000E+00  0.0000E+00  0.2000E+02  0.2000E+02
      1.941  0.0000E+00  0.0000E+00  0.2000E+02  0.2000E+02
      1.992  0.0000E+00  0.0000E+00  0.2000E+02  0.2000E+02
      2.042  0.0000E+00  0.0000E+00  0.2000E+02  0.2000E+02
      2.093  0.0000E+00  0.0000E+00  0.2000E+02  0.2000E+02
      2.143  0.0000E+00  0.0000E+00  0.2000E+02  0.2000E+02
      2.194  0.0000E+00  0.0000E+00  0.2000E+02  0.2000E+02
      2.244  0.0000E+00  0.0000E+00  0.2000E+02  0.2000E+02
      2.295  0.0000E+00  0.0000E+00  0.2000E+02  0.2000E+02
      2.345  0.0000E+00  0.0000E+00  0.2000E+02  0.2000E+02
      2.396  0.0000E+00  0.0000E+00  0.2000E+02  0.2000E+02
      2.446  0.0000E+00  0.0000E+00  0.2000E+02  0.2000E+02
      2.496  0.0000E+00  0.0000E+00  0.2000E+02  0.2000E+02
      2.547  0.0000E+00  0.0000E+00  0.2000E+02  0.2000E+02