       N       E                     dE             d eps       ncg     rms          rms(c)
DAV:   1     0.184889563386E+03    0.18489E+03   -0.56843E+03  1456   0.518E+02
DAV:   2     0.330124989655E+02   -0.15188E+03   -0.14702E+03  1964   0.130E+02
DAV:   3    -0.202160457554E+02   -0.53229E+02   -0.52047E+02  1460   0.735E+01
DAV:   4    -0.236586325057E+02   -0.34426E+01   -0.34403E+01  1328   0.213E+01
DAV:   5    -0.236931814404E+02   -0.34549E-01   -0.34481E-01  1404   0.223E+00    0.137E+01
RMM:   6    -0.147231134165E+02    0.89701E+01   -0.14060E+01  1040   0.183E+01    0.525E+00
RMM:   7    -0.188376998841E+02   -0.41146E+01   -0.19252E+00  1040   0.642E+00    0.316E+00
RMM:   8    -0.204560542135E+02   -0.16184E+01   -0.49161E-01  1040   0.348E+00    0.178E+00
RMM:   9    -0.214879473218E+02   -0.10319E+01   -0.17721E-01  1040   0.201E+00    0.952E-01
RMM:  10    -0.218371169906E+02   -0.34917E+00   -0.42094E-02  1040   0.894E-01    0.737E-01
RMM:  11    -0.222816071464E+02   -0.44449E+00   -0.39161E-02  1040   0.917E-01    0.581E-01
RMM:  12    -0.225240535857E+02   -0.24245E+00   -0.22536E-02  1040   0.623E-01    0.485E-01
RMM:  13    -0.228700999532E+02   -0.34605E+00   -0.63725E-02  1040   0.111E+00    0.285E-01
RMM:  14    -0.231243149360E+02   -0.25421E+00   -0.59490E-02  1040   0.806E-01    0.116E-01
RMM:  15    -0.231907262335E+02   -0.66411E-01   -0.17341E-02  1048   0.401E-01    0.875E-02
RMM:  16    -0.232011901427E+02   -0.10464E-01   -0.13382E-03   978   0.137E-01    0.402E-02
RMM:  17    -0.232102157460E+02   -0.90256E-02   -0.34953E-04   904   0.945E-02    0.212E-02
RMM:  18    -0.232135161522E+02   -0.33004E-02   -0.35720E-05   731   0.352E-02    0.134E-02
RMM:  19    -0.232162012652E+02   -0.26851E-02   -0.23848E-05   717   0.239E-02    0.786E-03
RMM:  20    -0.232191425895E+02   -0.29413E-02   -0.26713E-05   670   0.220E-02    0.590E-03
RMM:  21    -0.232196799039E+02   -0.53731E-03   -0.56863E-06   523   0.124E-02    0.449E-03
RMM:  22    -0.232205883216E+02   -0.90842E-03   -0.57781E-06   552   0.130E-02    0.366E-03
RMM:  23    -0.232214802475E+02   -0.89193E-03   -0.76485E-06   613   0.145E-02    0.216E-03
RMM:  24    -0.232217536149E+02   -0.27337E-03   -0.69375E-07   436   0.106E-02    0.121E-03
RMM:  25    -0.232219518278E+02   -0.19821E-03   -0.13187E-06   473   0.114E-02    0.853E-04
RMM:  26    -0.232220864282E+02   -0.13460E-03   -0.11475E-07   402   0.980E-03    0.424E-04
RMM:  27    -0.232221450576E+02   -0.58629E-04   -0.19994E-08   381   0.999E-03
   1 F= -.23222145E+02 E0= -.23223111E+02  d E =-.232221E+02  mag=     1.0001
       N       E                     dE             d eps       ncg     rms          rms(c)
DAV:   1    -0.220358458684E+02    0.11862E+01   -0.20356E+02  1148   0.105E+02    0.646E+00
RMM:   2    -0.221993799974E+02   -0.16353E+00   -0.69700E+00  1043   0.176E+01    0.272E+00
RMM:   3    -0.223061806706E+02   -0.10680E+00   -0.36310E-01  1064   0.330E+00    0.143E+00
RMM:   4    -0.224175707395E+02   -0.11139E+00   -0.15523E-01  1047   0.182E+00    0.153E+00
RMM:   5    -0.224308731332E+02   -0.13302E-01   -0.33738E-02  1040   0.109E+00    0.634E-01
RMM:   6    -0.224405201828E+02   -0.96470E-02   -0.16719E-02  1050   0.648E-01    0.180E-01
RMM:   7    -0.224547933669E+02   -0.14273E-01   -0.12273E-03  1040   0.201E-01    0.101E-01
RMM:   8    -0.224677346208E+02   -0.12941E-01   -0.72803E-04   962   0.145E-01    0.453E-02
RMM:   9    -0.224740980741E+02   -0.63635E-02   -0.74657E-05   741   0.469E-02    0.335E-02
RMM:  10    -0.224868918867E+02   -0.12794E-01   -0.17115E-04   779   0.522E-02    0.218E-02
RMM:  11    -0.224984936990E+02   -0.11602E-01   -0.10994E-04   760   0.401E-02    0.171E-02
RMM:  12    -0.225071854052E+02   -0.86917E-02   -0.81315E-05   714   0.344E-02    0.113E-02
RMM:  13    -0.225154255084E+02   -0.82401E-02   -0.12248E-04   766   0.397E-02    0.539E-03
RMM:  14    -0.225172396863E+02   -0.18142E-02   -0.30034E-05   637   0.221E-02    0.327E-03
RMM:  15    -0.225176945794E+02   -0.45489E-03   -0.92498E-06   558   0.144E-02    0.202E-03
RMM:  16    -0.225180413421E+02   -0.34676E-03   -0.67005E-06   567   0.137E-02    0.124E-03
RMM:  17    -0.225181309055E+02   -0.89563E-04   -0.28063E-06   511   0.110E-02
   2 F= -.22518131E+02 E0= -.22519512E+02  d E =0.704014E+00  mag=     0.9827
       N       E                     dE             d eps       ncg     rms          rms(c)
DAV:   1    -0.231558589587E+02   -0.63782E+00   -0.95203E+01  1164   0.696E+01    0.423E+00
RMM:   2    -0.232063533026E+02   -0.50494E-01   -0.32395E+00  1040   0.114E+01    0.191E+00
RMM:   3    -0.232284913163E+02   -0.22138E-01   -0.15161E-01  1060   0.219E+00    0.103E+00
RMM:   4    -0.232761236198E+02   -0.47632E-01   -0.47036E-02  1040   0.110E+00    0.811E-01
RMM:   5    -0.232830675785E+02   -0.69440E-02   -0.19904E-02  1040   0.743E-01    0.269E-01
RMM:   6    -0.232973379382E+02   -0.14270E-01   -0.22663E-03  1042   0.262E-01    0.135E-01
RMM:   7    -0.233079684041E+02   -0.10630E-01   -0.73911E-04  1007   0.132E-01    0.635E-02
RMM:   8    -0.233130772845E+02   -0.51089E-02   -0.17100E-04   782   0.758E-02    0.368E-02
RMM:   9    -0.233184021688E+02   -0.53249E-02   -0.83526E-05   736   0.479E-02    0.192E-02
RMM:  10    -0.233230988652E+02   -0.46967E-02   -0.45282E-05   728   0.303E-02    0.161E-02
RMM:  11    -0.233301158488E+02   -0.70170E-02   -0.85453E-05   745   0.373E-02    0.127E-02
RMM:  12    -0.233346864095E+02   -0.45706E-02   -0.50846E-05   677   0.290E-02    0.710E-03
RMM:  13    -0.233390237219E+02   -0.43373E-02   -0.56610E-05   719   0.292E-02    0.430E-03
RMM:  14    -0.233402200031E+02   -0.11963E-02   -0.24671E-05   608   0.190E-02    0.209E-03
RMM:  15    -0.233404686169E+02   -0.24861E-03   -0.79935E-06   540   0.131E-02    0.147E-03
RMM:  16    -0.233406297918E+02   -0.16117E-03   -0.30732E-06   489   0.110E-02    0.918E-04
RMM:  17    -0.233406991964E+02   -0.69405E-04   -0.13178E-06   442   0.102E-02
   3 F= -.23340699E+02 E0= -.23341666E+02  d E =-.118554E+00  mag=     0.9999
       N       E                     dE             d eps       ncg     rms          rms(c)
DAV:   1    -0.233408297644E+02   -0.19997E-03   -0.34646E-02  1260   0.135E+00    0.843E-02
RMM:   2    -0.233407463798E+02    0.83385E-04   -0.10475E-03   982   0.212E-01    0.357E-02
RMM:   3    -0.233406541052E+02    0.92275E-04   -0.37880E-05   702   0.422E-02
   4 F= -.23340654E+02 E0= -.23341620E+02  d E =-.118509E+00  mag=     0.9999
       N       E                     dE             d eps       ncg     rms          rms(c)
DAV:   1    -0.233241027764E+02    0.16644E-01   -0.67379E+00  1212   0.188E+01    0.972E-01
RMM:   2    -0.233262696633E+02   -0.21669E-02   -0.16341E-01  1040   0.270E+00    0.525E-01
RMM:   3    -0.233220660730E+02    0.42036E-02   -0.14147E-02  1065   0.639E-01    0.388E-01
RMM:   4    -0.233258262610E+02   -0.37602E-02   -0.29674E-03  1040   0.298E-01    0.177E-01
RMM:   5    -0.233289953268E+02   -0.31691E-02   -0.11967E-03  1014   0.180E-01    0.794E-02
RMM:   6    -0.233302574463E+02   -0.12621E-02   -0.19677E-04   800   0.809E-02    0.378E-02
RMM:   7    -0.233314958405E+02   -0.12384E-02   -0.72202E-05   728   0.518E-02    0.150E-02
RMM:   8    -0.233320344795E+02   -0.53864E-03   -0.16999E-05   722   0.267E-02    0.773E-03
RMM:   9    -0.233325207508E+02   -0.48627E-03   -0.59132E-06   580   0.146E-02    0.443E-03
RMM:  10    -0.233329078073E+02   -0.38706E-03   -0.21429E-06   474   0.115E-02    0.356E-03
RMM:  11    -0.233336193834E+02   -0.71158E-03   -0.98608E-06   625   0.160E-02    0.245E-03
RMM:  12    -0.233341049899E+02   -0.48561E-03   -0.60229E-06   547   0.127E-02    0.180E-03
RMM:  13    -0.233346119802E+02   -0.50699E-03   -0.74744E-06   609   0.140E-02    0.783E-04
RMM:  14    -0.233347641852E+02   -0.15221E-03   -0.21047E-06   454   0.103E-02    0.406E-04
RMM:  15    -0.233347871104E+02   -0.22925E-04   -0.44665E-07   410   0.943E-03
   5 F= -.23334787E+02 E0= -.23335753E+02  d E =0.586699E-02  mag=     1.0000
       N       E                     dE             d eps       ncg     rms          rms(c)
DAV:   1    -0.233447094802E+02   -0.99453E-02   -0.21485E+00  1192   0.106E+01    0.548E-01
RMM:   2    -0.233449212963E+02   -0.21182E-03   -0.51604E-02  1040   0.153E+00    0.302E-01
RMM:   3    -0.233431597211E+02    0.17616E-02   -0.47752E-03  1066   0.369E-01    0.229E-01
RMM:   4    -0.233443539106E+02   -0.11942E-02   -0.93432E-04  1001   0.168E-01    0.104E-01
RMM:   5    -0.233455491274E+02   -0.11952E-02   -0.38553E-04   908   0.106E-01    0.495E-02
RMM:   6    -0.233460344581E+02   -0.48533E-03   -0.73022E-05   727   0.524E-02    0.222E-02
RMM:   7    -0.233465118356E+02   -0.47738E-03   -0.24558E-05   713   0.303E-02    0.917E-03
RMM:   8    -0.233467326823E+02   -0.22085E-03   -0.63561E-06   607   0.152E-02    0.488E-03
RMM:   9    -0.233469301563E+02   -0.19747E-03   -0.17611E-06   470   0.108E-02    0.242E-03
RMM:  10    -0.233470803477E+02   -0.15019E-03   -0.13474E-06   442   0.108E-02    0.187E-03
RMM:  11    -0.233473007854E+02   -0.22044E-03   -0.31752E-06   494   0.117E-02    0.140E-03
RMM:  12    -0.233475763348E+02   -0.27555E-03   -0.42200E-06   537   0.122E-02    0.926E-04
RMM:  13    -0.233477418580E+02   -0.16552E-03   -0.15454E-06   453   0.104E-02    0.604E-04
RMM:  14    -0.233478236977E+02   -0.81840E-04   -0.21157E-06   444   0.101E-02
   6 F= -.23347824E+02 E0= -.23348790E+02  d E =-.716959E-02  mag=     1.0000
       N       E                     dE             d eps       ncg     rms          rms(c)
DAV:   1    -0.233489969560E+02   -0.12551E-02   -0.11918E+00  1164   0.798E+00    0.339E-01
RMM:   2    -0.233486936804E+02    0.30328E-03   -0.19584E-02  1040   0.896E-01    0.259E-01
RMM:   3    -0.233477109106E+02    0.98277E-03   -0.35084E-03  1079   0.285E-01    0.162E-01
RMM:   4    -0.233479383607E+02   -0.22745E-03   -0.33769E-04   848   0.109E-01    0.698E-02
RMM:   5    -0.233490116230E+02   -0.10733E-02   -0.25683E-04   828   0.882E-02    0.184E-02
RMM:   6    -0.233496323977E+02   -0.62077E-03   -0.31423E-05   716   0.385E-02    0.105E-02
RMM:   7    -0.233500336516E+02   -0.40125E-03   -0.11439E-05   650   0.206E-02    0.541E-03
RMM:   8    -0.233503702384E+02   -0.33659E-03   -0.63037E-06   573   0.151E-02    0.277E-03
RMM:   9    -0.233505321740E+02   -0.16194E-03   -0.27266E-06   515   0.113E-02    0.197E-03
RMM:  10    -0.233506620006E+02   -0.12983E-03   -0.17875E-06   468   0.100E-02    0.161E-03
RMM:  11    -0.233509303539E+02   -0.26835E-03   -0.46163E-06   527   0.125E-02    0.106E-03
RMM:  12    -0.233511760661E+02   -0.24571E-03   -0.55295E-06   572   0.129E-02    0.722E-04
RMM:  13    -0.233512471306E+02   -0.71064E-04   -0.43828E-07   420   0.941E-03
   7 F= -.23351247E+02 E0= -.23352213E+02  d E =-.342343E-02  mag=     1.0000
       N       E                     dE             d eps       ncg     rms          rms(c)
DAV:   1    -0.233513055724E+02   -0.12951E-03   -0.13509E-02  1204   0.850E-01    0.367E-02
RMM:   2    -0.233512807417E+02    0.24831E-04   -0.20773E-04   786   0.962E-02
   8 F= -.23351281E+02 E0= -.23352247E+02  d E =-.345704E-02  mag=     1.0000
       N       E                     dE             d eps       ncg     rms          rms(c)
DAV:   1    -0.233475754440E+02    0.37301E-02   -0.14182E+00  1196   0.848E+00    0.378E-01
RMM:   2    -0.233483159313E+02   -0.74049E-03   -0.32282E-02  1040   0.113E+00    0.221E-01
RMM:   3    -0.233498158211E+02   -0.14999E-02   -0.20046E-03  1043   0.245E-01    0.979E-02
RMM:   4    -0.233501283237E+02   -0.31250E-03   -0.14231E-04   759   0.706E-02    0.673E-02
RMM:   5    -0.233501874985E+02   -0.59175E-04   -0.31882E-04   855   0.989E-02
   9 F= -.23350187E+02 E0= -.23351154E+02  d E =0.109324E-02  mag=     1.0000
       N       E                     dE             d eps       ncg     rms          rms(c)
DAV:   1    -0.233512003538E+02   -0.10720E-02   -0.52936E-01  1168   0.516E+00    0.229E-01
RMM:   2    -0.233513841441E+02   -0.18379E-03   -0.10750E-02  1040   0.674E-01    0.130E-01
RMM:   3    -0.233519568697E+02   -0.57273E-03   -0.57432E-04   924   0.145E-01    0.583E-02
RMM:   4    -0.233520869486E+02   -0.13008E-03   -0.58319E-05   703   0.469E-02    0.362E-02
RMM:   5    -0.233521305129E+02   -0.43564E-04   -0.84342E-05   704   0.549E-02
  10 F= -.23352131E+02 E0= -.23353097E+02  d E =-.849771E-03  mag=     1.0000
       N       E                     dE             d eps       ncg     rms          rms(c)
DAV:   1    -0.233521378429E+02   -0.50894E-04   -0.23723E-04  1160   0.107E-01    0.870E-03
RMM:   2    -0.233521468607E+02   -0.90177E-05   -0.10217E-05   650   0.221E-02
  11 F= -.23352147E+02 E0= -.23353113E+02  d E =-.866119E-03  mag=     1.0000
       N       E                     dE             d eps       ncg     rms          rms(c)
DAV:   1    -0.233521473040E+02   -0.94611E-05   -0.36675E-05  1084   0.419E-02    0.423E-03
RMM:   2    -0.233521465375E+02    0.76650E-06   -0.15405E-06   460   0.115E-02
  12 F= -.23352147E+02 E0= -.23353113E+02  d E =-.865796E-03  mag=     1.0000
       N       E                     dE             d eps       ncg     rms          rms(c)
DAV:   1    -0.233521482907E+02   -0.98667E-06   -0.65330E-06  1000   0.175E-02    0.195E-03
RMM:   2    -0.233521520378E+02   -0.37470E-05    0.00000E+00   361   0.422E-03
  13 F= -.23352152E+02 E0= -.23353118E+02  d E =-.871296E-03  mag=     1.0000
       N       E                     dE             d eps       ncg     rms          rms(c)
DAV:   1    -0.233521532157E+02   -0.49250E-05   -0.15564E-06   956   0.828E-03    0.126E-03
RMM:   2    -0.233521549473E+02   -0.17316E-05    0.00000E+00   330   0.262E-03
  14 F= -.23352155E+02 E0= -.23353121E+02  d E =-.874206E-03  mag=     1.0000
       N       E                     dE             d eps       ncg     rms          rms(c)
DAV:   1    -0.233521084078E+02    0.44808E-04   -0.35326E-02  1196   0.134E+00    0.644E-02
RMM:   2    -0.233521170006E+02   -0.85928E-05   -0.75481E-04   936   0.184E-01
  15 F= -.23352117E+02 E0= -.23353083E+02  d E =0.379467E-04  mag=     1.0000
       N       E                     dE             d eps       ncg     rms          rms(c)
DAV:   1    -0.233521254968E+02   -0.17089E-04   -0.11142E-02  1224   0.750E-01    0.340E-02
RMM:   2    -0.233521517883E+02   -0.26291E-04   -0.25755E-04   806   0.106E-01
  16 F= -.23352152E+02 E0= -.23353118E+02  d E =0.315904E-05  mag=     1.0000
