    9    9  800    2
  0.3750000E+03  0.1500000E-08  0.1500000E-08  0.1500000E-08  0.5000000E-15
  1.000000000000000E-004
  CAR 
 unknown system                          
     18      1     20
 
  0.0000000E+00  0.0000000E+00  0.0000000E+00  0.1000000E+01
    1      -19.293495    -19.293495
    2      -16.726786    -16.726787
    3      -13.415140    -13.415142
    4      -11.221617    -11.221617
    5      -10.130239    -10.130241
    6       -9.916293     -9.916292
    7       -8.808960     -8.808961
    8       -8.109717     -8.109720
    9       -6.120112     -6.120113
   10       -0.887951     -0.887952
   11       -0.391843     -0.391854
   12        0.172191      0.172193
   13        0.221482      0.221470
   14        0.349530      0.349488
   15        0.469354      0.469322
   16        0.556496      0.556473
   17        0.615909      0.615891
   18        0.965776      0.965743
   19        0.999989      0.999948
   20        1.018470      1.018440
