       N       E                     dE             d eps       ncg     rms          rms(c)
DAV:   1     0.267642275171E+02    0.26764E+02   -0.45154E+03   160   0.363E+02
DAV:   2    -0.385950242398E+02   -0.65359E+02   -0.65359E+02   100   0.948E+01
DAV:   3    -0.424843396250E+02   -0.38893E+01   -0.38893E+01   140   0.272E+01
DAV:   4    -0.424911293104E+02   -0.67897E-02   -0.67897E-02    80   0.119E+00
DAV:   5    -0.424912557481E+02   -0.12644E-03   -0.12644E-03   160   0.156E-01    0.208E+01
DAV:   6    -0.181868802685E+02    0.24304E+02   -0.65665E+01   100   0.347E+01    0.998E+00
DAV:   7    -0.356487535427E+02   -0.17462E+02   -0.17049E+01   140   0.162E+01    0.579E+00
DAV:   8    -0.388798716870E+02   -0.32311E+01   -0.12084E+00   120   0.453E+00    0.323E+00
DAV:   9    -0.443572639507E+02   -0.54774E+01   -0.25734E+00   100   0.543E+00    0.128E+00
DAV:  10    -0.458557494583E+02   -0.14985E+01   -0.37665E-01   120   0.223E+00    0.754E-01
DAV:  11    -0.465832628155E+02   -0.72751E+00   -0.13672E-01   100   0.144E+00    0.453E-01
DAV:  12    -0.471652183078E+02   -0.58196E+00   -0.14650E-01    80   0.125E+00    0.188E-01
DAV:  13    -0.475533387569E+02   -0.38812E+00   -0.42814E-02   100   0.564E-01    0.100E-01
DAV:  14    -0.476621885561E+02   -0.10885E+00   -0.56090E-03   140   0.240E-01    0.524E-02
DAV:  15    -0.476621634698E+02    0.25086E-04   -0.12234E-03   120   0.134E-01    0.355E-02
DAV:  16    -0.476649272492E+02   -0.27638E-02   -0.97317E-04   100   0.110E-01    0.255E-02
DAV:  17    -0.476717648238E+02   -0.68376E-02   -0.10856E-03   120   0.985E-02    0.211E-02
DAV:  18    -0.476783545619E+02   -0.65897E-02   -0.44621E-04   100   0.653E-02    0.121E-02
DAV:  19    -0.476820527897E+02   -0.36982E-02   -0.99717E-05    80   0.340E-02    0.627E-03
DAV:  20    -0.476825796583E+02   -0.52687E-03   -0.19862E-05   140   0.186E-02    0.360E-03
DAV:  21    -0.476826873558E+02   -0.10770E-03   -0.52045E-06   100   0.954E-03    0.203E-03
DAV:  22    -0.476828448926E+02   -0.15754E-03   -0.19919E-06   100   0.577E-03    0.122E-03
DAV:  23    -0.476829467460E+02   -0.10185E-03   -0.14710E-06   140   0.430E-03    0.790E-04
DAV:  24    -0.476829927590E+02   -0.46013E-04   -0.60986E-07   140   0.235E-03
   1 F= -.47682993E+02 E0= -.47682993E+02  d E =-.476830E+02  mag=     0.0002
       N       E                     dE             d eps       ncg     rms          rms(c)
DAV:   1    -0.396774830885E+02    0.80055E+01   -0.37925E+02    80   0.107E+02    0.734E+00
DAV:   2    -0.395584635747E+02    0.11902E+00   -0.10944E+01   120   0.183E+01    0.483E+00
DAV:   3    -0.391226416095E+02    0.43582E+00   -0.21194E+00   160   0.745E+00    0.184E+00
DAV:   4    -0.391003370776E+02    0.22305E-01   -0.16804E-01   120   0.211E+00    0.770E-01
DAV:   5    -0.390996137975E+02    0.72328E-03   -0.28157E-02   120   0.713E-01    0.203E-01
DAV:   6    -0.391002379932E+02   -0.62420E-03   -0.14254E-03    80   0.208E-01    0.112E-01
DAV:   7    -0.391007560830E+02   -0.51809E-03   -0.33382E-04   160   0.891E-02    0.414E-02
DAV:   8    -0.391011655455E+02   -0.40946E-03   -0.87903E-05   140   0.480E-02    0.128E-02
DAV:   9    -0.391014677670E+02   -0.30222E-03   -0.30180E-05   140   0.197E-02    0.811E-03
DAV:  10    -0.391018038186E+02   -0.33605E-03   -0.37669E-05   120   0.196E-02    0.562E-03
DAV:  11    -0.391020979453E+02   -0.29413E-03   -0.40971E-05   100   0.195E-02    0.396E-03
DAV:  12    -0.391022341975E+02   -0.13625E-03   -0.13217E-05   100   0.115E-02    0.260E-03
DAV:  13    -0.391023149555E+02   -0.80758E-04   -0.53818E-06    80   0.641E-03
   2 F= -.39102315E+02 E0= -.39102315E+02  d E =0.858068E+01  mag=    -0.0000
       N       E                     dE             d eps       ncg     rms          rms(c)
DAV:   1    -0.489207165942E+02   -0.98185E+01   -0.23978E+02    80   0.861E+01    0.607E+00
DAV:   2    -0.484010578296E+02    0.51966E+00   -0.56348E+00   120   0.130E+01    0.339E+00
DAV:   3    -0.482290512472E+02    0.17201E+00   -0.11782E+00   160   0.510E+00    0.133E+00
DAV:   4    -0.482087583110E+02    0.20293E-01   -0.24239E-01    80   0.205E+00    0.739E-01
DAV:   5    -0.482062203837E+02    0.25379E-02   -0.18559E-02   160   0.765E-01    0.232E-01
DAV:   6    -0.482062730185E+02   -0.52635E-04   -0.53200E-03   120   0.304E-01    0.130E-01
DAV:   7    -0.482064654603E+02   -0.19244E-03   -0.65169E-04   120   0.124E-01    0.333E-02
DAV:   8    -0.482067741689E+02   -0.30871E-03   -0.12267E-04   120   0.496E-02    0.155E-02
DAV:   9    -0.482071883245E+02   -0.41416E-03   -0.29172E-05    80   0.245E-02    0.104E-02
DAV:  10    -0.482077022068E+02   -0.51388E-03   -0.60244E-05    80   0.279E-02    0.139E-02
DAV:  11    -0.482079709824E+02   -0.26878E-03   -0.16187E-05   160   0.140E-02    0.562E-03
DAV:  12    -0.482082377088E+02   -0.26673E-03   -0.27404E-05   120   0.155E-02    0.255E-03
DAV:  13    -0.482083146070E+02   -0.76898E-04   -0.18595E-06   160   0.491E-03
   3 F= -.48208315E+02 E0= -.48208315E+02  d E =-.525322E+00  mag=     0.0000
       N       E                     dE             d eps       ncg     rms          rms(c)
DAV:   1    -0.482187927543E+02   -0.10555E-01   -0.26941E-01   120   0.296E+00    0.206E-01
DAV:   2    -0.482181611933E+02    0.63156E-03   -0.65823E-03   120   0.399E-01    0.110E-01
DAV:   3    -0.482180538115E+02    0.10738E-03   -0.69032E-04   120   0.134E-01    0.457E-02
DAV:   4    -0.482180642142E+02   -0.10403E-04   -0.18703E-04   160   0.574E-02
   4 F= -.48218064E+02 E0= -.48218064E+02  d E =-.535071E+00  mag=     0.0000
       N       E                     dE             d eps       ncg     rms          rms(c)
DAV:   1    -0.480762031800E+02    0.14185E+00   -0.74129E+01    80   0.484E+01    0.307E+00
DAV:   2    -0.479038724924E+02    0.17233E+00   -0.18649E+00   120   0.655E+00    0.151E+00
DAV:   3    -0.478739354557E+02    0.29937E-01   -0.20971E-01   160   0.217E+00    0.753E-01
DAV:   4    -0.478725163812E+02    0.14191E-02   -0.17135E-02   120   0.603E-01    0.351E-01
DAV:   5    -0.478729775520E+02   -0.46117E-03   -0.53833E-03   160   0.337E-01    0.865E-02
DAV:   6    -0.478729970249E+02   -0.19473E-04   -0.15748E-03   140   0.168E-01    0.400E-02
DAV:   7    -0.478732899527E+02   -0.29293E-03   -0.16283E-04   160   0.597E-02    0.139E-02
DAV:   8    -0.478734370486E+02   -0.14710E-03   -0.23269E-05   160   0.187E-02    0.801E-03
DAV:   9    -0.478736486157E+02   -0.21157E-03   -0.27011E-05    80   0.170E-02    0.555E-03
DAV:  10    -0.478738037410E+02   -0.15513E-03   -0.23449E-05   160   0.142E-02    0.366E-03
DAV:  11    -0.478739091163E+02   -0.10538E-03   -0.87120E-06    80   0.818E-03    0.214E-03
DAV:  12    -0.478740006091E+02   -0.91493E-04   -0.12732E-05    80   0.855E-03
   5 F= -.47874001E+02 E0= -.47874001E+02  d E =0.344064E+00  mag=    -0.0000
       N       E                     dE             d eps       ncg     rms          rms(c)
DAV:   1    -0.484570896745E+02   -0.58318E+00   -0.31563E+01    80   0.313E+01    0.179E+00
DAV:   2    -0.484111118780E+02    0.45978E-01   -0.57713E-01    80   0.413E+00    0.100E+00
DAV:   3    -0.483941721109E+02    0.16940E-01   -0.16755E-01   120   0.194E+00    0.402E-01
DAV:   4    -0.483935754313E+02    0.59668E-03   -0.15927E-02   120   0.585E-01    0.273E-01
DAV:   5    -0.483940498843E+02   -0.47445E-03   -0.31246E-03   120   0.254E-01    0.109E-01
DAV:   6    -0.483937463062E+02    0.30358E-03   -0.23130E-03   160   0.216E-01    0.261E-02
DAV:   7    -0.483938465582E+02   -0.10025E-03   -0.14323E-04   160   0.576E-02    0.172E-02
DAV:   8    -0.483939221661E+02   -0.75608E-04   -0.14952E-05   120   0.174E-02
   6 F= -.48393922E+02 E0= -.48393922E+02  d E =-.175858E+00  mag=     0.0000
       N       E                     dE             d eps       ncg     rms          rms(c)
DAV:   1    -0.484684014485E+02   -0.74555E-01   -0.77667E+00    80   0.159E+01    0.815E-01
DAV:   2    -0.484636013597E+02    0.48001E-02   -0.10073E-01   120   0.171E+00    0.483E-01
DAV:   3    -0.484611506984E+02    0.24507E-02   -0.23105E-02   160   0.679E-01    0.136E-01
DAV:   4    -0.484611106621E+02    0.40036E-04   -0.16820E-03   120   0.202E-01    0.769E-02
DAV:   5    -0.484612400925E+02   -0.12943E-03   -0.20913E-04   120   0.704E-02    0.132E-02
DAV:   6    -0.484612708896E+02   -0.30797E-04   -0.12335E-05   160   0.179E-02
   7 F= -.48461271E+02 E0= -.48461271E+02  d E =-.673487E-01  mag=     0.0000
       N       E                     dE             d eps       ncg     rms          rms(c)
DAV:   1    -0.484645222768E+02   -0.32822E-02   -0.23515E-01    80   0.277E+00    0.137E-01
DAV:   2    -0.484644166483E+02    0.10563E-03   -0.27929E-03   120   0.287E-01    0.835E-02
DAV:   3    -0.484643799091E+02    0.36739E-04   -0.87556E-04   120   0.128E-01
   8 F= -.48464380E+02 E0= -.48464380E+02  d E =-.704577E-01  mag=    -0.0000
       N       E                     dE             d eps       ncg     rms          rms(c)
DAV:   1    -0.485053443856E+02   -0.40928E-01   -0.82500E+00    80   0.160E+01    0.820E-01
DAV:   2    -0.484978954805E+02    0.74489E-02   -0.12575E-01    80   0.189E+00    0.463E-01
DAV:   3    -0.484960164279E+02    0.18791E-02   -0.28892E-02   120   0.791E-01    0.205E-01
DAV:   4    -0.484958106209E+02    0.20581E-03   -0.55143E-03    80   0.300E-01    0.125E-01
DAV:   5    -0.484959057340E+02   -0.95113E-04   -0.94705E-04   120   0.142E-01
   9 F= -.48495906E+02 E0= -.48495906E+02  d E =-.315258E-01  mag=    -0.0000
       N       E                     dE             d eps       ncg     rms          rms(c)
DAV:   1    -0.485039919363E+02   -0.81813E-02   -0.78479E-01    80   0.495E+00    0.247E-01
DAV:   2    -0.485034061335E+02    0.58580E-03   -0.12324E-02   120   0.592E-01    0.147E-01
DAV:   3    -0.485031956179E+02    0.21052E-03   -0.23833E-03   120   0.228E-01    0.562E-02
DAV:   4    -0.485032152374E+02   -0.19620E-04   -0.41159E-04   120   0.842E-02
  10 F= -.48503215E+02 E0= -.48503215E+02  d E =-.388353E-01  mag=     0.0000
       N       E                     dE             d eps       ncg     rms          rms(c)
DAV:   1    -0.485232677967E+02   -0.20072E-01   -0.39271E+00    80   0.122E+01    0.485E-01
DAV:   2    -0.485255018052E+02   -0.22340E-02   -0.56871E-02   120   0.129E+00    0.314E-01
DAV:   3    -0.485247456357E+02    0.75617E-03   -0.72795E-03    80   0.435E-01    0.136E-01
DAV:   4    -0.485247812068E+02   -0.35571E-04   -0.15095E-03   120   0.190E-01    0.671E-02
DAV:   5    -0.485248325507E+02   -0.51344E-04   -0.14262E-04   120   0.572E-02
  11 F= -.48524833E+02 E0= -.48524833E+02  d E =-.216173E-01  mag=     0.0000
       N       E                     dE             d eps       ncg     rms          rms(c)
DAV:   1    -0.485293087177E+02   -0.45275E-02   -0.33405E-01    80   0.355E+00    0.145E-01
DAV:   2    -0.485294404496E+02   -0.13173E-03   -0.47318E-03   120   0.370E-01    0.932E-02
DAV:   3    -0.485294298699E+02    0.10580E-04   -0.64036E-04    80   0.131E-01
  12 F= -.48529430E+02 E0= -.48529430E+02  d E =-.262146E-01  mag=    -0.0000
       N       E                     dE             d eps       ncg     rms          rms(c)
DAV:   1    -0.485489728579E+02   -0.19532E-01   -0.16221E+00    80   0.731E+00    0.350E-01
DAV:   2    -0.485493581571E+02   -0.38530E-03   -0.21210E-02    80   0.767E-01    0.225E-01
DAV:   3    -0.485489358131E+02    0.42234E-03   -0.35944E-03   120   0.307E-01    0.476E-02
DAV:   4    -0.485489704137E+02   -0.34601E-04   -0.44254E-04   160   0.990E-02
  13 F= -.48548970E+02 E0= -.48548970E+02  d E =-.195405E-01  mag=     0.0000
       N       E                     dE             d eps       ncg     rms          rms(c)
DAV:   1    -0.485490009367E+02   -0.65124E-04   -0.12552E-03   120   0.203E-01    0.150E-02
DAV:   2    -0.485490096390E+02   -0.87022E-05   -0.14601E-05   160   0.201E-02
  14 F= -.48549010E+02 E0= -.48549010E+02  d E =-.195798E-01  mag=     0.0000
       N       E                     dE             d eps       ncg     rms          rms(c)
DAV:   1    -0.485542742768E+02   -0.52733E-02   -0.97228E-01    80   0.598E+00    0.267E-01
DAV:   2    -0.485541353519E+02    0.13892E-03   -0.15130E-02    80   0.666E-01    0.172E-01
DAV:   3    -0.485539006429E+02    0.23471E-03   -0.35184E-03    80   0.277E-01    0.703E-02
DAV:   4    -0.485538886194E+02    0.12023E-04   -0.50293E-04    80   0.103E-01
  15 F= -.48553889E+02 E0= -.48553889E+02  d E =-.487898E-02  mag=     0.0000
       N       E                     dE             d eps       ncg     rms          rms(c)
DAV:   1    -0.485559989346E+02   -0.20983E-02   -0.12341E-01    80   0.212E+00    0.969E-02
DAV:   2    -0.485560003354E+02   -0.14007E-05   -0.21510E-03   160   0.249E-01    0.640E-02
DAV:   3    -0.485559909724E+02    0.93630E-05   -0.37827E-04    80   0.908E-02
  16 F= -.48555991E+02 E0= -.48555991E+02  d E =-.698133E-02  mag=    -0.0000
       N       E                     dE             d eps       ncg     rms          rms(c)
DAV:   1    -0.485596049786E+02   -0.36046E-02   -0.60503E-01    80   0.461E+00    0.210E-01
DAV:   2    -0.485598399960E+02   -0.23502E-03   -0.92790E-03    80   0.563E-01    0.132E-01
DAV:   3    -0.485595887014E+02    0.25129E-03   -0.23172E-03   120   0.259E-01    0.454E-02
DAV:   4    -0.485596161958E+02   -0.27494E-04   -0.27524E-04   120   0.900E-02
  17 F= -.48559616E+02 E0= -.48559616E+02  d E =-.362522E-02  mag=    -0.0000
       N       E                     dE             d eps       ncg     rms          rms(c)
DAV:   1    -0.485600643395E+02   -0.47564E-03   -0.37308E-02    80   0.114E+00    0.575E-02
DAV:   2    -0.485600487896E+02    0.15550E-04   -0.59821E-04   120   0.144E-01
  18 F= -.48560049E+02 E0= -.48560049E+02  d E =-.405782E-02  mag=    -0.0000
       N       E                     dE             d eps       ncg     rms          rms(c)
DAV:   1    -0.485640082271E+02   -0.39439E-02   -0.20452E-01    80   0.269E+00    0.109E-01
DAV:   2    -0.485641051522E+02   -0.96925E-04   -0.21792E-03   120   0.253E-01    0.734E-02
DAV:   3    -0.485640985267E+02    0.66255E-05   -0.21550E-04   120   0.762E-02
  19 F= -.48564099E+02 E0= -.48564099E+02  d E =-.404974E-02  mag=    -0.0000
       N       E                     dE             d eps       ncg     rms          rms(c)
DAV:   1    -0.485653226485E+02   -0.12175E-02   -0.17908E-01    80   0.252E+00    0.108E-01
DAV:   2    -0.485653982842E+02   -0.75636E-04   -0.19012E-03   120   0.235E-01    0.716E-02
DAV:   3    -0.485654044361E+02   -0.61520E-05   -0.22349E-04   120   0.732E-02
  20 F= -.48565404E+02 E0= -.48565404E+02  d E =-.535565E-02  mag=    -0.0000
       N       E                     dE             d eps       ncg     rms          rms(c)
DAV:   1    -0.485679911630E+02   -0.25929E-02   -0.78145E-02    80   0.165E+00    0.819E-02
DAV:   2    -0.485679976368E+02   -0.64738E-05   -0.10582E-03   120   0.175E-01    0.523E-02
DAV:   3    -0.485680029205E+02   -0.52837E-05   -0.24217E-04   120   0.718E-02
  21 F= -.48568003E+02 E0= -.48568003E+02  d E =-.259848E-02  mag=    -0.0000
       N       E                     dE             d eps       ncg     rms          rms(c)
DAV:   1    -0.485692203001E+02   -0.12227E-02   -0.12335E-01    80   0.207E+00    0.103E-01
DAV:   2    -0.485692261774E+02   -0.58773E-05   -0.15903E-03    80   0.216E-01    0.650E-02
DAV:   3    -0.485692305017E+02   -0.43244E-05   -0.37007E-04   120   0.920E-02
  22 F= -.48569231E+02 E0= -.48569231E+02  d E =-.382607E-02  mag=    -0.0000
       N       E                     dE             d eps       ncg     rms          rms(c)
DAV:   1    -0.485709187874E+02   -0.16926E-02   -0.51444E-02    80   0.135E+00    0.705E-02
DAV:   2    -0.485709380906E+02   -0.19303E-04   -0.77267E-04   120   0.153E-01
  23 F= -.48570938E+02 E0= -.48570938E+02  d E =-.170759E-02  mag=    -0.0000
       N       E                     dE             d eps       ncg     rms          rms(c)
DAV:   1    -0.485718708809E+02   -0.95209E-03   -0.16376E-01    80   0.242E+00    0.125E-01
DAV:   2    -0.485719025481E+02   -0.31667E-04   -0.20562E-03   120   0.245E-01    0.808E-02
DAV:   3    -0.485719010527E+02    0.14954E-05   -0.61125E-04    80   0.125E-01
  24 F= -.48571901E+02 E0= -.48571901E+02  d E =-.267055E-02  mag=     0.0000
       N       E                     dE             d eps       ncg     rms          rms(c)
DAV:   1    -0.485730565939E+02   -0.11540E-02   -0.36596E-02    80   0.114E+00    0.561E-02
DAV:   2    -0.485730694798E+02   -0.12886E-04   -0.31987E-04   160   0.970E-02
  25 F= -.48573069E+02 E0= -.48573069E+02  d E =-.116843E-02  mag=     0.0000
       N       E                     dE             d eps       ncg     rms          rms(c)
DAV:   1    -0.485753107764E+02   -0.22542E-02   -0.32501E-01    80   0.341E+00    0.154E-01
DAV:   2    -0.485754137504E+02   -0.10297E-03   -0.24571E-03   120   0.268E-01    0.100E-01
DAV:   3    -0.485754386734E+02   -0.24923E-04   -0.33982E-04    80   0.880E-02
  26 F= -.48575439E+02 E0= -.48575439E+02  d E =-.353762E-02  mag=     0.0000
       N       E                     dE             d eps       ncg     rms          rms(c)
DAV:   1    -0.485742223689E+02    0.11914E-02   -0.13103E+00    80   0.683E+00    0.299E-01
DAV:   2    -0.485747228753E+02   -0.50051E-03   -0.99669E-03   160   0.537E-01    0.194E-01
DAV:   3    -0.485747382121E+02   -0.15337E-04   -0.14566E-03    80   0.176E-01    0.352E-02
DAV:   4    -0.485747208654E+02    0.17347E-04   -0.24089E-04   120   0.738E-02
  27 F= -.48574721E+02 E0= -.48574721E+02  d E =-.281981E-02  mag=    -0.0000
       N       E                     dE             d eps       ncg     rms          rms(c)
DAV:   1    -0.485758633653E+02   -0.11252E-02   -0.48867E-01    80   0.417E+00    0.183E-01
DAV:   2    -0.485760140798E+02   -0.15071E-03   -0.36447E-03    80   0.331E-01    0.116E-01
DAV:   3    -0.485760406322E+02   -0.26552E-04   -0.44990E-04    80   0.111E-01
  28 F= -.48576041E+02 E0= -.48576041E+02  d E =-.413958E-02  mag=     0.0000
       N       E                     dE             d eps       ncg     rms          rms(c)
DAV:   1    -0.485788063284E+02   -0.27922E-02   -0.12005E-01    80   0.204E+00    0.844E-02
DAV:   2    -0.485788455312E+02   -0.39203E-04   -0.11997E-03   120   0.195E-01    0.577E-02
DAV:   3    -0.485788373678E+02    0.81634E-05   -0.42576E-04   120   0.100E-01
  29 F= -.48578837E+02 E0= -.48578837E+02  d E =-.279674E-02  mag=    -0.0000
       N       E                     dE             d eps       ncg     rms          rms(c)
DAV:   1    -0.485801643447E+02   -0.13188E-02   -0.19064E-01    80   0.257E+00    0.110E-01
DAV:   2    -0.485802312064E+02   -0.66862E-04   -0.18801E-03   100   0.246E-01    0.739E-02
DAV:   3    -0.485802183928E+02    0.12814E-04   -0.56644E-04   120   0.119E-01
  30 F= -.48580218E+02 E0= -.48580218E+02  d E =-.417776E-02  mag=    -0.0000
       N       E                     dE             d eps       ncg     rms          rms(c)
DAV:   1    -0.485810380530E+02   -0.80685E-03   -0.45124E-02    80   0.125E+00    0.743E-02
DAV:   2    -0.485810612546E+02   -0.23202E-04   -0.99156E-04   160   0.166E-01
  31 F= -.48581061E+02 E0= -.48581061E+02  d E =-.842862E-03  mag=    -0.0000
       N       E                     dE             d eps       ncg     rms          rms(c)
DAV:   1    -0.485810422409E+02   -0.41879E-05   -0.10527E-03   120   0.201E-01    0.297E-02
DAV:   2    -0.485810374589E+02    0.47820E-05   -0.87383E-06   140   0.165E-02
  32 F= -.48581037E+02 E0= -.48581037E+02  d E =-.819066E-03  mag=    -0.0000
       N       E                     dE             d eps       ncg     rms          rms(c)
DAV:   1    -0.485816177403E+02   -0.57550E-03   -0.23433E-02    80   0.908E-01    0.498E-02
DAV:   2    -0.485816105930E+02    0.71473E-05   -0.45400E-04   100   0.110E-01
  33 F= -.48581611E+02 E0= -.48581611E+02  d E =-.573134E-03  mag=     0.0000
       N       E                     dE             d eps       ncg     rms          rms(c)
DAV:   1    -0.485816903384E+02   -0.72598E-04   -0.86653E-03    80   0.560E-01    0.402E-02
DAV:   2    -0.485816865951E+02    0.37432E-05   -0.13098E-04   120   0.594E-02
  34 F= -.48581687E+02 E0= -.48581687E+02  d E =-.649136E-03  mag=    -0.0000
       N       E                     dE             d eps       ncg     rms          rms(c)
DAV:   1    -0.485822269262E+02   -0.53659E-03   -0.25429E-02    80   0.944E-01    0.435E-02
DAV:   2    -0.485822218204E+02    0.51058E-05   -0.32527E-04    80   0.100E-01
  35 F= -.48582222E+02 E0= -.48582222E+02  d E =-.535225E-03  mag=     0.0000
       N       E                     dE             d eps       ncg     rms          rms(c)
DAV:   1    -0.485823304492E+02   -0.10352E-03   -0.14181E-02    80   0.710E-01    0.376E-02
DAV:   2    -0.485823285870E+02    0.18622E-05   -0.14257E-04   120   0.674E-02
  36 F= -.48582329E+02 E0= -.48582329E+02  d E =-.641992E-03  mag=     0.0000
       N       E                     dE             d eps       ncg     rms          rms(c)
DAV:   1    -0.485825914405E+02   -0.26099E-03   -0.29061E-02    80   0.975E-01    0.538E-02
DAV:   2    -0.485825841669E+02    0.72736E-05   -0.55318E-04    80   0.124E-01
  37 F= -.48582584E+02 E0= -.48582584E+02  d E =-.255580E-03  mag=     0.0000
       N       E                     dE             d eps       ncg     rms          rms(c)
DAV:   1    -0.485825967373E+02   -0.52968E-05   -0.11467E-03   120   0.185E-01    0.120E-02
DAV:   2    -0.485825984324E+02   -0.16951E-05   -0.50855E-05   120   0.325E-02
  38 F= -.48582598E+02 E0= -.48582598E+02  d E =-.269845E-03  mag=     0.0000
       N       E                     dE             d eps       ncg     rms          rms(c)
DAV:   1    -0.485828229563E+02   -0.22622E-03   -0.14391E-02    80   0.673E-01    0.357E-02
DAV:   2    -0.485828250739E+02   -0.21176E-05   -0.23124E-04   120   0.809E-02
  39 F= -.48582825E+02 E0= -.48582825E+02  d E =-.226642E-03  mag=     0.0000
       N       E                     dE             d eps       ncg     rms          rms(c)
DAV:   1    -0.485828279379E+02   -0.49816E-05   -0.53885E-04   120   0.136E-01    0.137E-02
DAV:   2    -0.485828274784E+02    0.45957E-06   -0.31568E-06   160   0.101E-02
  40 F= -.48582827E+02 E0= -.48582827E+02  d E =-.229046E-03  mag=     0.0000
       N       E                     dE             d eps       ncg     rms          rms(c)
DAV:   1    -0.485829714337E+02   -0.14350E-03   -0.69305E-03   160   0.488E-01    0.248E-02
DAV:   2    -0.485829660358E+02    0.53979E-05   -0.76475E-05   160   0.424E-02
  41 F= -.48582966E+02 E0= -.48582966E+02  d E =-.138557E-03  mag=     0.0000
       N       E                     dE             d eps       ncg     rms          rms(c)
DAV:   1    -0.485829742175E+02   -0.27837E-05   -0.72795E-04   160   0.160E-01    0.131E-02
DAV:   2    -0.485829730306E+02    0.11869E-05   -0.60586E-06   120   0.125E-02
  42 F= -.48582973E+02 E0= -.48582973E+02  d E =-.145552E-03  mag=     0.0000
       N       E                     dE             d eps       ncg     rms          rms(c)
DAV:   1    -0.485829864920E+02   -0.12275E-04   -0.10182E-02    80   0.587E-01    0.302E-02
DAV:   2    -0.485829877453E+02   -0.12533E-05   -0.17648E-04   120   0.718E-02
  43 F= -.48582988E+02 E0= -.48582988E+02  d E =-.147147E-04  mag=    -0.0000
       N       E                     dE             d eps       ncg     rms          rms(c)
DAV:   1    -0.485830188481E+02   -0.32356E-04   -0.21839E-03   160   0.266E-01    0.100E-02
DAV:   2    -0.485830192055E+02   -0.35740E-06   -0.35698E-05    80   0.302E-02
  44 F= -.48583019E+02 E0= -.48583019E+02  d E =-.461749E-04  mag=     0.0000
