   35   35  800    2
  0.1021823E+02  0.7603567E-09  0.7603567E-09  0.7142962E-09  0.5000000E-15
  1.000000000000000E-004
  CAR 
 unknown system                          
    100      1     88
 
  0.0000000E+00  0.0000000E+00  0.0000000E+00  0.1000000E+01
    1      -29.545091    -28.338124
    2      -22.604258    -22.596432
    3      -22.261183    -22.250933
    4      -22.070456    -22.068394
    5      -21.892911    -21.888417
    6      -21.669684    -21.664945
    7      -21.540785    -21.539473
    8      -21.384564    -21.381593
    9      -21.336740    -21.333778
   10      -21.217675    -21.214062
   11      -21.046285    -21.041508
   12      -20.598900    -20.596889
   13      -17.716954    -15.959753
   14      -10.844487    -10.375711
   15      -10.377390    -10.275971
   16      -10.341098     -9.952734
   17      -10.194573     -9.818805
   18       -9.954008     -9.778137
   19       -9.893498     -9.733913
   20       -9.817923     -9.643684
   21       -9.776695     -9.581758
   22       -9.727933     -9.527612
   23       -9.639002     -9.466607
   24       -9.571151     -9.285852
   25       -9.512776     -9.230451
   26       -9.289301     -8.601356
   27       -9.230801     -8.410514
   28       -8.010495     -7.964022
   29       -7.139451     -7.130713
   30       -7.038158     -7.023757
   31       -6.707487     -6.704116
   32       -6.475892     -6.462897
   33       -6.061102     -6.054738
   34       -5.989843     -5.981909
   35       -5.690979     -5.688666
   36       -5.561373     -5.551304
   37       -5.306284     -5.298696
   38       -4.650955     -4.643435
   39       -4.462624     -4.436621
   40       -4.409622     -4.396582
   41       -4.259789     -4.171966
   42       -4.152827     -4.140081
   43       -4.123941     -4.116219
   44       -4.046106     -4.032076
   45       -3.953539     -3.903532
   46       -3.938703     -3.853027
   47       -3.888609     -3.750982
   48       -3.848751     -3.571041
   49       -3.743031     -3.438502
   50       -3.524085     -1.837025
   51       -3.451130     -1.660579
   52        1.680267      1.726056
   53        4.173354      4.257329
   54        4.287268      4.587959
   55        4.816232      4.876306
   56        5.138219      5.184487
   57        5.309311      5.344957
   58        5.446773      5.486835
   59        5.737704      5.747325
   60        5.826202      5.920698
   61        6.178090      6.376733
   62        6.515097      6.625098
   63        6.705052      6.875587
   64        7.234768      7.284491
   65        7.316904      7.345572
   66        7.376525      7.419359
   67        7.459359      7.478954
   68        7.604971      7.693647
   69        7.900106      7.962760
   70        8.024994      8.129095
   71        8.289272      8.580327
   72        8.639391      8.673414
   73        8.901446      8.987287
   74        9.364058      9.391751
   75        9.444526      9.475472
   76        9.481615      9.518207
   77        9.591575      9.642288
   78        9.803149      9.825480
   79        9.985532      9.996514
   80       10.123971     10.138070
   81       10.207517     10.233034
   82       10.419355     10.426010
   83       10.609774     10.623605
   84       10.697022     10.702988
   85       10.755745     10.780858
   86       10.794395     10.813877
   87       10.888870     10.898793
   88       10.950382     10.979105
