       N       E                     dE             d eps       ncg     rms          rms(c)
DAV:   1     0.528603213434E+03    0.52860E+03   -0.42154E+04   360   0.817E+02
DAV:   2    -0.102143948904E+03   -0.63075E+03   -0.60728E+03   432   0.231E+02
DAV:   3    -0.149025695158E+03   -0.46882E+02   -0.46447E+02   432   0.641E+01
DAV:   4    -0.149518808871E+03   -0.49311E+00   -0.49210E+00   440   0.737E+00
DAV:   5    -0.149523253866E+03   -0.44450E-02   -0.44433E-02   432   0.679E-01    0.452E+01
DAV:   6    -0.117154549257E+03    0.32369E+02   -0.14770E+02   408   0.390E+01    0.154E+01
DAV:   7    -0.165199764555E+03   -0.48045E+02   -0.46644E+01   392   0.169E+01    0.886E+00
DAV:   8    -0.169912697615E+03   -0.47129E+01   -0.39679E+00   384   0.632E+00    0.502E+00
DAV:   9    -0.170716626717E+03   -0.80393E+00   -0.14546E+00   400   0.397E+00    0.170E+00
DAV:  10    -0.170692734185E+03    0.23893E-01   -0.11932E-01   416   0.134E+00    0.751E-01
DAV:  11    -0.170686542697E+03    0.61915E-02   -0.49071E-02   400   0.765E-01    0.307E-01
DAV:  12    -0.170686810585E+03   -0.26789E-03   -0.71853E-03   408   0.321E-01    0.177E-01
DAV:  13    -0.170686699320E+03    0.11127E-03   -0.99524E-04   400   0.160E-01    0.995E-02
DAV:  14    -0.170686634651E+03    0.64668E-04   -0.39727E-04   408   0.883E-02
   1 F= -.17068663E+03 E0= -.17068663E+03  d E =-.170687E+03  mag=     2.0094
       N       E                     dE             d eps       ncg     rms          rms(c)
DAV:   1    -0.166374443960E+03    0.43123E+01   -0.47139E+02   352   0.730E+01    0.671E+00
DAV:   2    -0.167765878143E+03   -0.13914E+01   -0.17213E+01   432   0.123E+01    0.397E+00
DAV:   3    -0.167682427288E+03    0.83451E-01   -0.50079E-01   440   0.259E+00    0.207E+00
DAV:   4    -0.167628314273E+03    0.54113E-01   -0.13946E-01   432   0.144E+00    0.885E-01
DAV:   5    -0.167628972754E+03   -0.65848E-03   -0.22685E-02   392   0.638E-01    0.352E-01
DAV:   6    -0.167628017312E+03    0.95544E-03   -0.46418E-03   432   0.349E-01    0.146E-01
DAV:   7    -0.167627947598E+03    0.69714E-04   -0.14212E-03   400   0.157E-01    0.756E-02
DAV:   8    -0.167627876940E+03    0.70658E-04   -0.29925E-04   400   0.763E-02
   2 F= -.16762788E+03 E0= -.16762788E+03  d E =0.305876E+01  mag=     2.0000
       N       E                     dE             d eps       ncg     rms          rms(c)
DAV:   1    -0.170629887453E+03   -0.30019E+01   -0.22261E+02   416   0.485E+01    0.546E+00
DAV:   2    -0.171112540917E+03   -0.48265E+00   -0.80750E+00   448   0.865E+00    0.252E+00
DAV:   3    -0.171101317282E+03    0.11224E-01   -0.28740E-01   424   0.203E+00    0.132E+00
DAV:   4    -0.171086245870E+03    0.15071E-01   -0.42163E-02   440   0.864E-01    0.675E-01
DAV:   5    -0.171084834871E+03    0.14110E-02   -0.11300E-02   416   0.553E-01    0.322E-01
DAV:   6    -0.171085163840E+03   -0.32897E-03   -0.28766E-03   432   0.238E-01    0.136E-01
DAV:   7    -0.171085113820E+03    0.50020E-04   -0.84125E-04   416   0.122E-01
   3 F= -.17108511E+03 E0= -.17108511E+03  d E =-.398479E+00  mag=     2.0000
       N       E                     dE             d eps       ncg     rms          rms(c)
DAV:   1    -0.171086179550E+03   -0.10157E-02   -0.26682E-01   368   0.172E+00    0.179E-01
DAV:   2    -0.171086794052E+03   -0.61450E-03   -0.85447E-03   456   0.299E-01    0.847E-02
DAV:   3    -0.171086801601E+03   -0.75488E-05   -0.26248E-04   432   0.661E-02
   4 F= -.17108680E+03 E0= -.17108680E+03  d E =-.400167E+00  mag=     2.0000
       N       E                     dE             d eps       ncg     rms          rms(c)
DAV:   1    -0.171014432580E+03    0.72361E-01   -0.86041E+01   352   0.304E+01    0.250E+00
DAV:   2    -0.171182904544E+03   -0.16847E+00   -0.20731E+00   432   0.454E+00    0.123E+00
DAV:   3    -0.171185220029E+03   -0.23155E-02   -0.54065E-02   416   0.941E-01    0.652E-01
DAV:   4    -0.171182911471E+03    0.23086E-02   -0.90835E-03   424   0.419E-01    0.349E-01
DAV:   5    -0.171183353827E+03   -0.44236E-03   -0.36372E-03   408   0.303E-01    0.191E-01
DAV:   6    -0.171183460398E+03   -0.10657E-03   -0.98518E-04   408   0.153E-01    0.706E-02
DAV:   7    -0.171183482201E+03   -0.21803E-04   -0.24647E-04   392   0.602E-02
   5 F= -.17118348E+03 E0= -.17118348E+03  d E =-.966806E-01  mag=     2.0000
       N       E                     dE             d eps       ncg     rms          rms(c)
DAV:   1    -0.171224981733E+03   -0.41521E-01   -0.13552E+01   352   0.120E+01    0.982E-01
DAV:   2    -0.171248574615E+03   -0.23593E-01   -0.29872E-01   432   0.179E+00    0.503E-01
DAV:   3    -0.171248787527E+03   -0.21291E-03   -0.90876E-03   408   0.390E-01    0.267E-01
DAV:   4    -0.171248410378E+03    0.37715E-03   -0.21641E-03   432   0.198E-01    0.139E-01
DAV:   5    -0.171248452411E+03   -0.42033E-04   -0.54623E-04   400   0.122E-01
   6 F= -.17124845E+03 E0= -.17124845E+03  d E =-.161651E+00  mag=     2.0000
       N       E                     dE             d eps       ncg     rms          rms(c)
DAV:   1    -0.171400625462E+03   -0.15222E+00   -0.30559E+01   352   0.181E+01    0.122E+00
DAV:   2    -0.171449781538E+03   -0.49156E-01   -0.56860E-01   432   0.249E+00    0.634E-01
DAV:   3    -0.171449640981E+03    0.14056E-03   -0.10602E-02   408   0.445E-01    0.361E-01
DAV:   4    -0.171448500841E+03    0.11401E-02   -0.50614E-03   424   0.292E-01    0.172E-01
DAV:   5    -0.171448530129E+03   -0.29288E-04   -0.12758E-03   408   0.194E-01    0.875E-02
DAV:   6    -0.171448591263E+03   -0.61134E-04   -0.32315E-04   408   0.801E-02
   7 F= -.17144859E+03 E0= -.17144859E+03  d E =-.200139E+00  mag=     2.0000
       N       E                     dE             d eps       ncg     rms          rms(c)
DAV:   1    -0.171455084007E+03   -0.65539E-02   -0.57504E+01   352   0.249E+01    0.166E+00
DAV:   2    -0.171552158549E+03   -0.97075E-01   -0.11104E+00   432   0.344E+00    0.847E-01
DAV:   3    -0.171551992369E+03    0.16618E-03   -0.18800E-02   408   0.586E-01    0.487E-01
DAV:   4    -0.171549775681E+03    0.22167E-02   -0.95879E-03   432   0.406E-01    0.227E-01
DAV:   5    -0.171550030124E+03   -0.25444E-03   -0.23376E-03   384   0.253E-01    0.109E-01
DAV:   6    -0.171550110879E+03   -0.80755E-04   -0.57211E-04   424   0.104E-01
   8 F= -.17155011E+03 E0= -.17155011E+03  d E =-.301658E+00  mag=     2.0000
       N       E                     dE             d eps       ncg     rms          rms(c)
DAV:   1    -0.171584957811E+03   -0.34928E-01   -0.46247E+01   352   0.228E+01    0.153E+00
DAV:   2    -0.171668121995E+03   -0.83164E-01   -0.99260E-01   440   0.328E+00    0.784E-01
DAV:   3    -0.171667187730E+03    0.93427E-03   -0.17160E-02   416   0.571E-01    0.455E-01
DAV:   4    -0.171665731852E+03    0.14559E-02   -0.69915E-03   416   0.356E-01    0.197E-01
DAV:   5    -0.171666290653E+03   -0.55880E-03   -0.18557E-03   384   0.207E-01    0.949E-02
DAV:   6    -0.171666390556E+03   -0.99903E-04   -0.27199E-04   368   0.746E-02
   9 F= -.17166639E+03 E0= -.17166639E+03  d E =-.116280E+00  mag=     2.0000
       N       E                     dE             d eps       ncg     rms          rms(c)
DAV:   1    -0.171666552497E+03   -0.26184E-03   -0.16004E-01   352   0.134E+00    0.761E-02
DAV:   2    -0.171666797895E+03   -0.24540E-03   -0.29900E-03   440   0.180E-01    0.445E-02
DAV:   3    -0.171666775272E+03    0.22623E-04   -0.53943E-05   280   0.331E-02
  10 F= -.17166678E+03 E0= -.17166678E+03  d E =-.116664E+00  mag=     2.0000
       N       E                     dE             d eps       ncg     rms          rms(c)
DAV:   1    -0.171737703897E+03   -0.70906E-01   -0.10233E+01   352   0.108E+01    0.753E-01
DAV:   2    -0.171754208461E+03   -0.16505E-01   -0.19216E-01   432   0.146E+00    0.370E-01
DAV:   3    -0.171754683190E+03   -0.47473E-03   -0.42555E-03   400   0.278E-01    0.208E-01
DAV:   4    -0.171754649433E+03    0.33756E-04   -0.12243E-03   392   0.152E-01    0.980E-02
DAV:   5    -0.171754723297E+03   -0.73863E-04   -0.36215E-04   384   0.999E-02
  11 F= -.17175472E+03 E0= -.17175472E+03  d E =-.879480E-01  mag=     2.0000
       N       E                     dE             d eps       ncg     rms          rms(c)
DAV:   1    -0.171759473068E+03   -0.48236E-02   -0.34174E+01   352   0.197E+01    0.138E+00
DAV:   2    -0.171816639188E+03   -0.57166E-01   -0.66791E-01   432   0.270E+00    0.678E-01
DAV:   3    -0.171818589694E+03   -0.19505E-02   -0.13966E-02   408   0.500E-01    0.381E-01
DAV:   4    -0.171818389139E+03    0.20056E-03   -0.40659E-03   392   0.275E-01    0.175E-01
DAV:   5    -0.171818799166E+03   -0.41003E-03   -0.11762E-03   384   0.178E-01    0.852E-02
DAV:   6    -0.171818870917E+03   -0.71751E-04   -0.23427E-04   400   0.707E-02
  12 F= -.17181887E+03 E0= -.17181887E+03  d E =-.152096E+00  mag=     2.0000
       N       E                     dE             d eps       ncg     rms          rms(c)
DAV:   1    -0.171865613166E+03   -0.46814E-01   -0.40043E+00   352   0.678E+00    0.488E-01
DAV:   2    -0.171872593759E+03   -0.69806E-02   -0.75000E-02   432   0.892E-01    0.238E-01
DAV:   3    -0.171872807076E+03   -0.21332E-03   -0.11802E-03   392   0.154E-01    0.134E-01
DAV:   4    -0.171872881900E+03   -0.74825E-04   -0.57948E-04   384   0.104E-01
  13 F= -.17187288E+03 E0= -.17187288E+03  d E =-.540110E-01  mag=     2.0000
       N       E                     dE             d eps       ncg     rms          rms(c)
DAV:   1    -0.171881363226E+03   -0.85562E-02   -0.29142E+01   352   0.183E+01    0.129E+00
DAV:   2    -0.171931733178E+03   -0.50370E-01   -0.54888E-01   432   0.240E+00    0.638E-01
DAV:   3    -0.171933882692E+03   -0.21495E-02   -0.79592E-03   416   0.387E-01    0.358E-01
DAV:   4    -0.171934048966E+03   -0.16627E-03   -0.41222E-03   392   0.275E-01    0.142E-01
DAV:   5    -0.171934548563E+03   -0.49960E-03   -0.86395E-04   384   0.142E-01    0.627E-02
DAV:   6    -0.171934584494E+03   -0.35931E-04   -0.14648E-04   360   0.520E-02
  14 F= -.17193458E+03 E0= -.17193458E+03  d E =-.115714E+00  mag=     2.0000
       N       E                     dE             d eps       ncg     rms          rms(c)
DAV:   1    -0.171957893970E+03   -0.23345E-01   -0.67081E+00   352   0.870E+00    0.697E-01
DAV:   2    -0.171970475382E+03   -0.12581E-01   -0.14488E-01   432   0.121E+00    0.331E-01
DAV:   3    -0.171971101514E+03   -0.62613E-03   -0.31304E-03   400   0.236E-01    0.178E-01
DAV:   4    -0.171971121833E+03   -0.20318E-04   -0.77983E-04   416   0.124E-01
  15 F= -.17197112E+03 E0= -.17197112E+03  d E =-.365373E-01  mag=     2.0000
       N       E                     dE             d eps       ncg     rms          rms(c)
DAV:   1    -0.171971759828E+03   -0.65831E-03   -0.22904E-01   384   0.161E+00    0.144E-01
DAV:   2    -0.171972212553E+03   -0.45273E-03   -0.48812E-03   432   0.225E-01    0.726E-02
DAV:   3    -0.171972207919E+03    0.46339E-05   -0.12917E-04   336   0.509E-02
  16 F= -.17197221E+03 E0= -.17197221E+03  d E =-.376234E-01  mag=     2.0000
       N       E                     dE             d eps       ncg     rms          rms(c)
DAV:   1    -0.171986507112E+03   -0.14295E-01   -0.79817E-01   352   0.308E+00    0.212E-01
DAV:   2    -0.171987851829E+03   -0.13447E-02   -0.15949E-02   432   0.425E-01    0.112E-01
DAV:   3    -0.171987783134E+03    0.68695E-04   -0.33033E-04   408   0.779E-02
  17 F= -.17198778E+03 E0= -.17198778E+03  d E =-.155752E-01  mag=     2.0000
       N       E                     dE             d eps       ncg     rms          rms(c)
DAV:   1    -0.171999165845E+03   -0.11314E-01   -0.71700E+00   352   0.922E+00    0.623E-01
DAV:   2    -0.172010816597E+03   -0.11651E-01   -0.14322E-01   432   0.127E+00    0.335E-01
DAV:   3    -0.172010577841E+03    0.23876E-03   -0.28847E-03   408   0.231E-01    0.186E-01
DAV:   4    -0.172010502490E+03    0.75351E-04   -0.12072E-03   416   0.155E-01    0.719E-02
DAV:   5    -0.172010601899E+03   -0.99409E-04   -0.30344E-04   368   0.787E-02
  18 F= -.17201060E+03 E0= -.17201060E+03  d E =-.383940E-01  mag=     2.0000
       N       E                     dE             d eps       ncg     rms          rms(c)
DAV:   1    -0.172023123912E+03   -0.12621E-01   -0.39666E-01   352   0.218E+00    0.152E-01
DAV:   2    -0.172023775434E+03   -0.65152E-03   -0.70818E-03   432   0.283E-01    0.767E-02
DAV:   3    -0.172023782584E+03   -0.71500E-05   -0.10897E-04   312   0.487E-02
  19 F= -.17202378E+03 E0= -.17202378E+03  d E =-.131807E-01  mag=     2.0000
       N       E                     dE             d eps       ncg     rms          rms(c)
DAV:   1    -0.172050483331E+03   -0.26708E-01   -0.35519E+00   352   0.651E+00    0.440E-01
DAV:   2    -0.172055959064E+03   -0.54757E-02   -0.62297E-02   432   0.839E-01    0.226E-01
DAV:   3    -0.172056150767E+03   -0.19170E-03   -0.99229E-04   400   0.145E-01    0.130E-01
DAV:   4    -0.172056191870E+03   -0.41103E-04   -0.46278E-04   400   0.941E-02
  20 F= -.17205619E+03 E0= -.17205619E+03  d E =-.455900E-01  mag=     2.0000
       N       E                     dE             d eps       ncg     rms          rms(c)
DAV:   1    -0.172065289863E+03   -0.91391E-02   -0.14227E+01   352   0.130E+01    0.885E-01
DAV:   2    -0.172087985066E+03   -0.22695E-01   -0.25674E-01   432   0.170E+00    0.453E-01
DAV:   3    -0.172088759071E+03   -0.77401E-03   -0.39977E-03   408   0.289E-01    0.262E-01
DAV:   4    -0.172088909213E+03   -0.15014E-03   -0.18738E-03   416   0.190E-01    0.100E-01
DAV:   5    -0.172089209149E+03   -0.29994E-03   -0.43493E-04   400   0.931E-02    0.464E-02
DAV:   6    -0.172089211519E+03   -0.23704E-05   -0.54901E-05   288   0.413E-02
  21 F= -.17208921E+03 E0= -.17208921E+03  d E =-.786096E-01  mag=     2.0000
       N       E                     dE             d eps       ncg     rms          rms(c)
DAV:   1    -0.172088999686E+03    0.20946E-03   -0.10848E+00   352   0.360E+00    0.246E-01
DAV:   2    -0.172090752373E+03   -0.17527E-02   -0.19465E-02   432   0.470E-01    0.126E-01
DAV:   3    -0.172090806404E+03   -0.54031E-04   -0.29716E-04   384   0.817E-02
  22 F= -.17209081E+03 E0= -.17209081E+03  d E =-.802045E-01  mag=     2.0000
       N       E                     dE             d eps       ncg     rms          rms(c)
DAV:   1    -0.172104008656E+03   -0.13256E-01   -0.25685E+00   352   0.550E+00    0.382E-01
DAV:   2    -0.172108147982E+03   -0.41393E-02   -0.48187E-02   424   0.723E-01    0.202E-01
DAV:   3    -0.172108111811E+03    0.36172E-04   -0.69584E-04   424   0.129E-01
  23 F= -.17210811E+03 E0= -.17210811E+03  d E =-.173054E-01  mag=     2.0000
       N       E                     dE             d eps       ncg     rms          rms(c)
DAV:   1    -0.172106506063E+03    0.16419E-02   -0.75954E+00   352   0.946E+00    0.657E-01
DAV:   2    -0.172118865386E+03   -0.12359E-01   -0.14375E-01   424   0.125E+00    0.349E-01
DAV:   3    -0.172118706685E+03    0.15870E-03   -0.20972E-03   424   0.227E-01    0.200E-01
DAV:   4    -0.172118777310E+03   -0.70625E-04   -0.12856E-03   424   0.152E-01    0.778E-02
DAV:   5    -0.172118883769E+03   -0.10646E-03   -0.29613E-04   368   0.773E-02    0.418E-02
DAV:   6    -0.172118892508E+03   -0.87393E-05   -0.38548E-05   288   0.336E-02
  24 F= -.17211889E+03 E0= -.17211889E+03  d E =-.280861E-01  mag=     2.0000
       N       E                     dE             d eps       ncg     rms          rms(c)
DAV:   1    -0.172127537392E+03   -0.86536E-02   -0.15281E+00   352   0.426E+00    0.309E-01
DAV:   2    -0.172130254069E+03   -0.27167E-02   -0.30998E-02   432   0.588E-01    0.157E-01
DAV:   3    -0.172130258621E+03   -0.45515E-05   -0.52624E-04   432   0.106E-01
  25 F= -.17213026E+03 E0= -.17213026E+03  d E =-.113661E-01  mag=     2.0000
       N       E                     dE             d eps       ncg     rms          rms(c)
DAV:   1    -0.172130848865E+03   -0.59480E-03   -0.27018E+00   352   0.566E+00    0.419E-01
DAV:   2    -0.172135375974E+03   -0.45271E-02   -0.52861E-02   432   0.770E-01    0.220E-01
DAV:   3    -0.172135307058E+03    0.68916E-04   -0.97521E-04   440   0.144E-01
  26 F= -.17213531E+03 E0= -.17213531E+03  d E =-.164145E-01  mag=     2.0000
       N       E                     dE             d eps       ncg     rms          rms(c)
DAV:   1    -0.172145548648E+03   -0.10173E-01   -0.13400E+00   352   0.394E+00    0.296E-01
DAV:   2    -0.172147514175E+03   -0.19655E-02   -0.23274E-02   432   0.519E-01    0.158E-01
DAV:   3    -0.172147492251E+03    0.21924E-04   -0.44783E-04   416   0.103E-01
  27 F= -.17214749E+03 E0= -.17214749E+03  d E =-.121852E-01  mag=     2.0000
       N       E                     dE             d eps       ncg     rms          rms(c)
DAV:   1    -0.172150118751E+03   -0.26046E-02   -0.12163E+01   352   0.119E+01    0.827E-01
DAV:   2    -0.172168860099E+03   -0.18741E-01   -0.21730E-01   432   0.157E+00    0.431E-01
DAV:   3    -0.172168942952E+03   -0.82853E-04   -0.34541E-03   400   0.283E-01    0.250E-01
DAV:   4    -0.172168970874E+03   -0.27921E-04   -0.19435E-03   416   0.183E-01    0.108E-01
DAV:   5    -0.172169087131E+03   -0.11626E-03   -0.48186E-04   400   0.106E-01    0.563E-02
DAV:   6    -0.172169113930E+03   -0.26799E-04   -0.90416E-05   312   0.466E-02
  28 F= -.17216911E+03 E0= -.17216911E+03  d E =-.338069E-01  mag=     2.0000
       N       E                     dE             d eps       ncg     rms          rms(c)
DAV:   1    -0.172167685132E+03    0.14020E-02   -0.23296E+00   352   0.520E+00    0.360E-01
DAV:   2    -0.172171402541E+03   -0.37174E-02   -0.42573E-02   432   0.693E-01    0.184E-01
DAV:   3    -0.172171463568E+03   -0.61027E-04   -0.64215E-04   400   0.124E-01
  29 F= -.17217146E+03 E0= -.17217146E+03  d E =-.361565E-01  mag=     2.0000
       N       E                     dE             d eps       ncg     rms          rms(c)
DAV:   1    -0.172181330835E+03   -0.99283E-02   -0.41061E+00   352   0.694E+00    0.480E-01
DAV:   2    -0.172187959141E+03   -0.66283E-02   -0.77576E-02   432   0.940E-01    0.259E-01
DAV:   3    -0.172187749475E+03    0.20967E-03   -0.12033E-03   408   0.173E-01    0.151E-01
DAV:   4    -0.172187744581E+03    0.48941E-05   -0.77949E-04   424   0.115E-01
  30 F= -.17218774E+03 E0= -.17218774E+03  d E =-.162810E-01  mag=     2.0000
       N       E                     dE             d eps       ncg     rms          rms(c)
DAV:   1    -0.172187681719E+03    0.67756E-04   -0.39033E+00   352   0.676E+00    0.456E-01
DAV:   2    -0.172194223217E+03   -0.65415E-02   -0.75077E-02   432   0.919E-01    0.239E-01
DAV:   3    -0.172194149945E+03    0.73271E-04   -0.11006E-03   400   0.165E-01    0.141E-01
DAV:   4    -0.172194122999E+03    0.26946E-04   -0.66250E-04   416   0.109E-01
  31 F= -.17219412E+03 E0= -.17219412E+03  d E =-.226594E-01  mag=     2.0000
       N       E                     dE             d eps       ncg     rms          rms(c)
DAV:   1    -0.172200284977E+03   -0.61350E-02   -0.85990E-01   352   0.312E+00    0.213E-01
DAV:   2    -0.172201692880E+03   -0.14079E-02   -0.16486E-02   432   0.424E-01    0.109E-01
DAV:   3    -0.172201673021E+03    0.19859E-04   -0.27323E-04   360   0.814E-02
  32 F= -.17220167E+03 E0= -.17220167E+03  d E =-.755002E-02  mag=     2.0000
       N       E                     dE             d eps       ncg     rms          rms(c)
DAV:   1    -0.172201806568E+03   -0.11369E-03   -0.33961E+00   352   0.620E+00    0.415E-01
DAV:   2    -0.172207180650E+03   -0.53741E-02   -0.64263E-02   432   0.837E-01    0.221E-01
DAV:   3    -0.172206997214E+03    0.18344E-03   -0.10213E-03   400   0.157E-01    0.130E-01
DAV:   4    -0.172206936039E+03    0.61175E-04   -0.48435E-04   424   0.942E-02
  33 F= -.17220694E+03 E0= -.17220694E+03  d E =-.128130E-01  mag=     2.0000
       N       E                     dE             d eps       ncg     rms          rms(c)
DAV:   1    -0.172211114861E+03   -0.41176E-02   -0.67397E-01   352   0.270E+00    0.184E-01
DAV:   2    -0.172212146041E+03   -0.10312E-02   -0.11341E-02   432   0.345E-01    0.909E-02
DAV:   3    -0.172212153240E+03   -0.71988E-05   -0.15285E-04   336   0.640E-02
  34 F= -.17221215E+03 E0= -.17221215E+03  d E =-.521720E-02  mag=     2.0000
       N       E                     dE             d eps       ncg     rms          rms(c)
DAV:   1    -0.172214779665E+03   -0.26336E-02   -0.60755E+00   352   0.811E+00    0.530E-01
DAV:   2    -0.172223997027E+03   -0.92174E-02   -0.10322E-01   432   0.104E+00    0.275E-01
DAV:   3    -0.172223821213E+03    0.17581E-03   -0.12883E-03   416   0.180E-01    0.159E-01
DAV:   4    -0.172223752948E+03    0.68265E-04   -0.78116E-04   416   0.118E-01
  35 F= -.17222375E+03 E0= -.17222375E+03  d E =-.168169E-01  mag=     2.0000
       N       E                     dE             d eps       ncg     rms          rms(c)
DAV:   1    -0.172191181425E+03    0.32640E-01   -0.24371E+01   352   0.162E+01    0.105E+00
DAV:   2    -0.172229777102E+03   -0.38596E-01   -0.42668E-01   432   0.210E+00    0.533E-01
DAV:   3    -0.172229431298E+03    0.34580E-03   -0.50166E-03   416   0.350E-01    0.309E-01
DAV:   4    -0.172229079818E+03    0.35148E-03   -0.28918E-03   416   0.229E-01    0.136E-01
DAV:   5    -0.172229264301E+03   -0.18448E-03   -0.10536E-03   384   0.142E-01    0.769E-02
DAV:   6    -0.172229293990E+03   -0.29689E-04   -0.12228E-04   328   0.577E-02
  36 F= -.17222929E+03 E0= -.17222929E+03  d E =-.223580E-01  mag=     2.0000
       N       E                     dE             d eps       ncg     rms          rms(c)
DAV:   1    -0.172234961492E+03   -0.56972E-02   -0.34604E+00   352   0.611E+00    0.409E-01
DAV:   2    -0.172240285330E+03   -0.53238E-02   -0.62016E-02   432   0.812E-01    0.212E-01
DAV:   3    -0.172240177741E+03    0.10759E-03   -0.93678E-04   408   0.151E-01    0.120E-01
DAV:   4    -0.172240123512E+03    0.54229E-04   -0.46137E-04   416   0.919E-02
  37 F= -.17224012E+03 E0= -.17224012E+03  d E =-.108295E-01  mag=     2.0000
       N       E                     dE             d eps       ncg     rms          rms(c)
DAV:   1    -0.172239745411E+03    0.43233E-03   -0.26278E+00   352   0.531E+00    0.358E-01
DAV:   2    -0.172243689755E+03   -0.39443E-02   -0.45817E-02   432   0.695E-01    0.186E-01
DAV:   3    -0.172243604317E+03    0.85437E-04   -0.69968E-04   408   0.134E-01
  38 F= -.17224360E+03 E0= -.17224360E+03  d E =-.143103E-01  mag=     2.0000
       N       E                     dE             d eps       ncg     rms          rms(c)
DAV:   1    -0.172247875822E+03   -0.41861E-02   -0.22128E-01   352   0.163E+00    0.138E-01
DAV:   2    -0.172248233977E+03   -0.35815E-03   -0.50746E-03   440   0.245E-01    0.767E-02
DAV:   3    -0.172248200085E+03    0.33891E-04   -0.11325E-04   336   0.547E-02
  39 F= -.17224820E+03 E0= -.17224820E+03  d E =-.459577E-02  mag=     2.0000
       N       E                     dE             d eps       ncg     rms          rms(c)
DAV:   1    -0.172249617753E+03   -0.13838E-02   -0.35505E-01   352   0.207E+00    0.160E-01
DAV:   2    -0.172250147323E+03   -0.52957E-03   -0.79771E-03   440   0.304E-01    0.881E-02
DAV:   3    -0.172250098774E+03    0.48549E-04   -0.17832E-04   352   0.637E-02
  40 F= -.17225010E+03 E0= -.17225010E+03  d E =-.649446E-02  mag=     2.0000
       N       E                     dE             d eps       ncg     rms          rms(c)
DAV:   1    -0.172253044168E+03   -0.28968E-02   -0.16836E-01   352   0.141E+00    0.109E-01
DAV:   2    -0.172253303393E+03   -0.25922E-03   -0.32690E-03   440   0.194E-01    0.585E-02
DAV:   3    -0.172253298817E+03    0.45756E-05   -0.69757E-05   336   0.411E-02
  41 F= -.17225330E+03 E0= -.17225330E+03  d E =-.320004E-02  mag=     2.0000
       N       E                     dE             d eps       ncg     rms          rms(c)
DAV:   1    -0.172254799852E+03   -0.14965E-02   -0.12530E+00   352   0.386E+00    0.275E-01
DAV:   2    -0.172256782925E+03   -0.19831E-02   -0.24463E-02   440   0.525E-01    0.145E-01
DAV:   3    -0.172256779887E+03    0.30376E-05   -0.48060E-04   424   0.103E-01
  42 F= -.17225678E+03 E0= -.17225678E+03  d E =-.668111E-02  mag=     2.0000
       N       E                     dE             d eps       ncg     rms          rms(c)
DAV:   1    -0.172259499634E+03   -0.27167E-02   -0.14590E-01   352   0.132E+00    0.107E-01
DAV:   2    -0.172259693132E+03   -0.19350E-03   -0.25466E-03   432   0.179E-01    0.590E-02
DAV:   3    -0.172259684235E+03    0.88974E-05   -0.74967E-05   312   0.415E-02
  43 F= -.17225968E+03 E0= -.17225968E+03  d E =-.290435E-02  mag=     2.0000
       N       E                     dE             d eps       ncg     rms          rms(c)
DAV:   1    -0.172262272625E+03   -0.25795E-02   -0.13356E+00   352   0.400E+00    0.270E-01
DAV:   2    -0.172264344520E+03   -0.20719E-02   -0.24966E-02   432   0.538E-01    0.142E-01
DAV:   3    -0.172264293594E+03    0.50926E-04   -0.44795E-04   400   0.969E-02
  44 F= -.17226429E+03 E0= -.17226429E+03  d E =-.751371E-02  mag=     2.0000
       N       E                     dE             d eps       ncg     rms          rms(c)
DAV:   1    -0.172264344183E+03    0.33700E-06   -0.87663E-02   384   0.102E+00    0.851E-02
DAV:   2    -0.172264438389E+03   -0.94206E-04   -0.14124E-03   440   0.135E-01    0.498E-02
DAV:   3    -0.172264427951E+03    0.10438E-04   -0.46434E-05   296   0.341E-02
  45 F= -.17226443E+03 E0= -.17226443E+03  d E =-.764806E-02  mag=     2.0000
       N       E                     dE             d eps       ncg     rms          rms(c)
DAV:   1    -0.172266373392E+03   -0.19350E-02   -0.14520E-01   352   0.132E+00    0.969E-02
DAV:   2    -0.172266608675E+03   -0.23528E-03   -0.30615E-03   448   0.190E-01    0.525E-02
DAV:   3    -0.172266605485E+03    0.31894E-05   -0.77848E-05   304   0.419E-02
  46 F= -.17226661E+03 E0= -.17226661E+03  d E =-.217753E-02  mag=     2.0000
       N       E                     dE             d eps       ncg     rms          rms(c)
DAV:   1    -0.172267271104E+03   -0.66243E-03   -0.36587E-01   352   0.210E+00    0.150E-01
DAV:   2    -0.172267856513E+03   -0.58541E-03   -0.75943E-03   448   0.298E-01    0.813E-02
DAV:   3    -0.172267845240E+03    0.11273E-04   -0.19664E-04   376   0.642E-02
  47 F= -.17226785E+03 E0= -.17226785E+03  d E =-.341729E-02  mag=     2.0000
       N       E                     dE             d eps       ncg     rms          rms(c)
DAV:   1    -0.172269600465E+03   -0.17440E-02   -0.10063E-01   352   0.109E+00    0.837E-02
DAV:   2    -0.172269761820E+03   -0.16136E-03   -0.17589E-03   432   0.143E-01    0.454E-02
DAV:   3    -0.172269766139E+03   -0.43188E-05   -0.35113E-05   288   0.304E-02
  48 F= -.17226977E+03 E0= -.17226977E+03  d E =-.192090E-02  mag=     2.0000
       N       E                     dE             d eps       ncg     rms          rms(c)
DAV:   1    -0.172271965049E+03   -0.22032E-02   -0.91099E-01   352   0.328E+00    0.232E-01
DAV:   2    -0.172273479022E+03   -0.15140E-02   -0.16350E-02   432   0.435E-01    0.119E-01
DAV:   3    -0.172273545866E+03   -0.66844E-04   -0.30231E-04   392   0.828E-02
  49 F= -.17227355E+03 E0= -.17227355E+03  d E =-.570063E-02  mag=     2.0000
       N       E                     dE             d eps       ncg     rms          rms(c)
DAV:   1    -0.172265818234E+03    0.76608E-02   -0.36423E+00   352   0.655E+00    0.465E-01
DAV:   2    -0.172271914238E+03   -0.60960E-02   -0.65048E-02   440   0.868E-01    0.240E-01
DAV:   3    -0.172272073513E+03   -0.15928E-03   -0.11931E-03   408   0.163E-01    0.140E-01
DAV:   4    -0.172272070485E+03    0.30278E-05   -0.55863E-04   440   0.102E-01
  50 F= -.17227207E+03 E0= -.17227207E+03  d E =-.422525E-02  mag=     2.0000
       N       E                     dE             d eps       ncg     rms          rms(c)
DAV:   1    -0.172271880487E+03    0.19303E-03   -0.14592E+00   352   0.416E+00    0.274E-01
DAV:   2    -0.172274407181E+03   -0.25267E-02   -0.26788E-02   432   0.553E-01    0.141E-01
DAV:   3    -0.172274441405E+03   -0.34224E-04   -0.43101E-04   408   0.955E-02
  51 F= -.17227444E+03 E0= -.17227444E+03  d E =-.659617E-02  mag=     2.0000
       N       E                     dE             d eps       ncg     rms          rms(c)
DAV:   1    -0.172275866100E+03   -0.14589E-02   -0.91134E-02   352   0.103E+00    0.723E-02
DAV:   2    -0.172276055043E+03   -0.18894E-03   -0.18816E-03   432   0.148E-01    0.334E-02
DAV:   3    -0.172276080582E+03   -0.25539E-04   -0.36070E-05   288   0.285E-02
  52 F= -.17227608E+03 E0= -.17227608E+03  d E =-.163918E-02  mag=     2.0000
       N       E                     dE             d eps       ncg     rms          rms(c)
DAV:   1    -0.172277580631E+03   -0.15256E-02   -0.79652E-01   352   0.305E+00    0.217E-01
DAV:   2    -0.172278930669E+03   -0.13500E-02   -0.14456E-02   432   0.407E-01    0.110E-01
DAV:   3    -0.172278999279E+03   -0.68610E-04   -0.27363E-04   368   0.778E-02
  53 F= -.17227900E+03 E0= -.17227900E+03  d E =-.455787E-02  mag=     2.0000
       N       E                     dE             d eps       ncg     rms          rms(c)
DAV:   1    -0.172279034313E+03   -0.10364E-03   -0.18600E-01   352   0.147E+00    0.118E-01
DAV:   2    -0.172279323465E+03   -0.28915E-03   -0.31600E-03   440   0.194E-01    0.639E-02
DAV:   3    -0.172279335651E+03   -0.12185E-04   -0.76661E-05   304   0.431E-02
  54 F= -.17227934E+03 E0= -.17227934E+03  d E =-.489425E-02  mag=     2.0000
       N       E                     dE             d eps       ncg     rms          rms(c)
DAV:   1    -0.172280198541E+03   -0.87508E-03   -0.63056E-02   352   0.845E-01    0.680E-02
DAV:   2    -0.172280304492E+03   -0.10595E-03   -0.11502E-03   432   0.113E-01    0.360E-02
DAV:   3    -0.172280310436E+03   -0.59441E-05   -0.22655E-05   280   0.236E-02
  55 F= -.17228031E+03 E0= -.17228031E+03  d E =-.974785E-03  mag=     2.0000
       N       E                     dE             d eps       ncg     rms          rms(c)
DAV:   1    -0.172281088562E+03   -0.78407E-03   -0.57220E-01   352   0.255E+00    0.185E-01
DAV:   2    -0.172282059750E+03   -0.97119E-03   -0.10597E-02   432   0.340E-01    0.914E-02
DAV:   3    -0.172282129016E+03   -0.69266E-04   -0.19303E-04   360   0.646E-02
  56 F= -.17228213E+03 E0= -.17228213E+03  d E =-.279337E-02  mag=     2.0000
       N       E                     dE             d eps       ncg     rms          rms(c)
DAV:   1    -0.172276703538E+03    0.53562E-02   -0.22879E+00   352   0.509E+00    0.370E-01
DAV:   2    -0.172280621157E+03   -0.39176E-02   -0.42082E-02   432   0.677E-01    0.183E-01
DAV:   3    -0.172280813162E+03   -0.19201E-03   -0.76466E-04   400   0.127E-01    0.103E-01
DAV:   4    -0.172280812923E+03    0.23883E-06   -0.31436E-04   432   0.749E-02
  57 F= -.17228081E+03 E0= -.17228081E+03  d E =-.147727E-02  mag=     2.0000
       N       E                     dE             d eps       ncg     rms          rms(c)
DAV:   1    -0.172280356379E+03    0.45678E-03   -0.11375E+00   352   0.360E+00    0.247E-01
DAV:   2    -0.172282398418E+03   -0.20420E-02   -0.21482E-02   432   0.484E-01    0.120E-01
DAV:   3    -0.172282450370E+03   -0.51951E-04   -0.36126E-04   376   0.849E-02
  58 F= -.17228245E+03 E0= -.17228245E+03  d E =-.311472E-02  mag=     2.0000
       N       E                     dE             d eps       ncg     rms          rms(c)
DAV:   1    -0.172282960535E+03   -0.56212E-03   -0.24922E-02   352   0.535E-01    0.415E-02
DAV:   2    -0.172283026140E+03   -0.65605E-04   -0.57936E-04   424   0.823E-02
  59 F= -.17228303E+03 E0= -.17228303E+03  d E =-.575770E-03  mag=     2.0000
       N       E                     dE             d eps       ncg     rms          rms(c)
DAV:   1    -0.172284212697E+03   -0.12522E-02   -0.21143E-01   352   0.154E+00    0.110E-01
DAV:   2    -0.172284569651E+03   -0.35695E-03   -0.36854E-03   440   0.199E-01    0.537E-02
DAV:   3    -0.172284597400E+03   -0.27749E-04   -0.60749E-05   304   0.369E-02
  60 F= -.17228460E+03 E0= -.17228460E+03  d E =-.214703E-02  mag=     2.0000
       N       E                     dE             d eps       ncg     rms          rms(c)
DAV:   1    -0.172285213378E+03   -0.64373E-03   -0.84274E-01   352   0.307E+00    0.223E-01
DAV:   2    -0.172286634399E+03   -0.14210E-02   -0.14496E-02   432   0.395E-01    0.107E-01
DAV:   3    -0.172286740092E+03   -0.10569E-03   -0.24277E-04   368   0.718E-02    0.603E-02
DAV:   4    -0.172286739773E+03    0.31932E-06   -0.10109E-04   320   0.428E-02
  61 F= -.17228674E+03 E0= -.17228674E+03  d E =-.428940E-02  mag=     2.0000
       N       E                     dE             d eps       ncg     rms          rms(c)
DAV:   1    -0.172280854816E+03    0.58853E-02   -0.33871E+00   352   0.614E+00    0.442E-01
DAV:   2    -0.172286835513E+03   -0.59807E-02   -0.59104E-02   432   0.798E-01    0.208E-01
DAV:   3    -0.172287220459E+03   -0.38495E-03   -0.94491E-04   392   0.138E-01    0.116E-01
DAV:   4    -0.172287200975E+03    0.19484E-04   -0.38169E-04   416   0.828E-02
  62 F= -.17228720E+03 E0= -.17228720E+03  d E =-.475061E-02  mag=     2.0000
       N       E                     dE             d eps       ncg     rms          rms(c)
DAV:   1    -0.172286287738E+03    0.93272E-03   -0.72661E-01   352   0.285E+00    0.196E-01
DAV:   2    -0.172287584680E+03   -0.12969E-02   -0.12947E-02   432   0.373E-01    0.916E-02
DAV:   3    -0.172287641322E+03   -0.56642E-04   -0.19562E-04   360   0.616E-02
  63 F= -.17228764E+03 E0= -.17228764E+03  d E =-.519095E-02  mag=     2.0000
       N       E                     dE             d eps       ncg     rms          rms(c)
DAV:   1    -0.172289007027E+03   -0.14223E-02   -0.35563E-01   352   0.200E+00    0.138E-01
DAV:   2    -0.172289658536E+03   -0.65151E-03   -0.67125E-03   432   0.270E-01    0.609E-02
DAV:   3    -0.172289741667E+03   -0.83131E-04   -0.11433E-04   320   0.481E-02
  64 F= -.17228974E+03 E0= -.17228974E+03  d E =-.210035E-02  mag=     2.0000
       N       E                     dE             d eps       ncg     rms          rms(c)
DAV:   1    -0.172286665327E+03    0.29932E-02   -0.29654E+00   352   0.575E+00    0.415E-01
DAV:   2    -0.172291847976E+03   -0.51826E-02   -0.53039E-02   432   0.755E-01    0.193E-01
DAV:   3    -0.172292210746E+03   -0.36277E-03   -0.90695E-04   384   0.136E-01    0.109E-01
DAV:   4    -0.172292205714E+03    0.50317E-05   -0.29744E-04   424   0.761E-02
  65 F= -.17229221E+03 E0= -.17229221E+03  d E =-.456439E-02  mag=     2.0000
       N       E                     dE             d eps       ncg     rms          rms(c)
DAV:   1    -0.172292181298E+03    0.29448E-04   -0.33081E-02   352   0.614E-01    0.400E-02
DAV:   2    -0.172292242900E+03   -0.61602E-04   -0.63461E-04   416   0.852E-02
  66 F= -.17229224E+03 E0= -.17229224E+03  d E =-.460158E-02  mag=     2.0000
       N       E                     dE             d eps       ncg     rms          rms(c)
DAV:   1    -0.172292987345E+03   -0.80605E-03   -0.18492E-01   352   0.144E+00    0.997E-02
DAV:   2    -0.172293338432E+03   -0.35109E-03   -0.35765E-03   432   0.197E-01    0.445E-02
DAV:   3    -0.172293359604E+03   -0.21172E-04   -0.50956E-05   296   0.325E-02
  67 F= -.17229336E+03 E0= -.17229336E+03  d E =-.111670E-02  mag=     2.0000
       N       E                     dE             d eps       ncg     rms          rms(c)
DAV:   1    -0.172291984055E+03    0.13544E-02   -0.13038E+00   352   0.382E+00    0.268E-01
DAV:   2    -0.172294326223E+03   -0.23422E-02   -0.24306E-02   432   0.512E-01    0.127E-01
DAV:   3    -0.172294462331E+03   -0.13611E-03   -0.37076E-04   376   0.851E-02    0.718E-02
DAV:   4    -0.172294444545E+03    0.17786E-04   -0.15293E-04   328   0.552E-02
  68 F= -.17229444E+03 E0= -.17229444E+03  d E =-.220165E-02  mag=     2.0000
       N       E                     dE             d eps       ncg     rms          rms(c)
DAV:   1    -0.172295053572E+03   -0.59124E-03   -0.13304E-01   352   0.120E+00    0.905E-02
DAV:   2    -0.172295281993E+03   -0.22842E-03   -0.22713E-03   424   0.155E-01    0.403E-02
DAV:   3    -0.172295308972E+03   -0.26979E-04   -0.41594E-05   296   0.290E-02
  69 F= -.17229531E+03 E0= -.17229531E+03  d E =-.864427E-03  mag=     2.0000
       N       E                     dE             d eps       ncg     rms          rms(c)
DAV:   1    -0.172295150983E+03    0.13101E-03   -0.11989E+00   352   0.361E+00    0.256E-01
DAV:   2    -0.172297201810E+03   -0.20508E-02   -0.20539E-02   424   0.463E-01    0.116E-01
DAV:   3    -0.172297403281E+03   -0.20147E-03   -0.32114E-04   368   0.787E-02    0.651E-02
DAV:   4    -0.172297400151E+03    0.31302E-05   -0.11123E-04   320   0.480E-02
  70 F= -.17229740E+03 E0= -.17229740E+03  d E =-.295561E-02  mag=     2.0000
       N       E                     dE             d eps       ncg     rms          rms(c)
DAV:   1    -0.172290243124E+03    0.71602E-02   -0.48058E+00   352   0.722E+00    0.512E-01
DAV:   2    -0.172298822581E+03   -0.85795E-02   -0.83821E-02   424   0.935E-01    0.226E-01
DAV:   3    -0.172299486433E+03   -0.66385E-03   -0.12555E-03   384   0.151E-01    0.126E-01
DAV:   4    -0.172299454895E+03    0.31538E-04   -0.42211E-04   408   0.922E-02
  71 F= -.17229945E+03 E0= -.17229945E+03  d E =-.501035E-02  mag=     2.0000
       N       E                     dE             d eps       ncg     rms          rms(c)
DAV:   1    -0.172300837155E+03   -0.13507E-02   -0.33695E-01   352   0.190E+00    0.144E-01
DAV:   2    -0.172301403405E+03   -0.56625E-03   -0.55979E-03   424   0.241E-01    0.633E-02
DAV:   3    -0.172301476455E+03   -0.73051E-04   -0.97536E-05   328   0.431E-02
  72 F= -.17230148E+03 E0= -.17230148E+03  d E =-.202156E-02  mag=     2.0000
       N       E                     dE             d eps       ncg     rms          rms(c)
DAV:   1    -0.172299594651E+03    0.18088E-02   -0.30367E+00   352   0.570E+00    0.406E-01
DAV:   2    -0.172304816794E+03   -0.52221E-02   -0.50847E-02   424   0.720E-01    0.183E-01
DAV:   3    -0.172305283997E+03   -0.46720E-03   -0.76105E-04   392   0.117E-01    0.103E-01
DAV:   4    -0.172305260458E+03    0.23539E-04   -0.29575E-04   408   0.764E-02
  73 F= -.17230526E+03 E0= -.17230526E+03  d E =-.580556E-02  mag=     2.0000
       N       E                     dE             d eps       ncg     rms          rms(c)
DAV:   1    -0.172280902703E+03    0.24381E-01   -0.12175E+01   352   0.114E+01    0.807E-01
DAV:   2    -0.172302632302E+03   -0.21730E-01   -0.20713E-01   424   0.145E+00    0.362E-01
DAV:   3    -0.172304325051E+03   -0.16927E-02   -0.29786E-03   392   0.225E-01    0.201E-01
DAV:   4    -0.172304151637E+03    0.17341E-03   -0.11657E-03   400   0.151E-01    0.812E-02
DAV:   5    -0.172304408136E+03   -0.25650E-03   -0.31378E-04   368   0.728E-02    0.315E-02
DAV:   6    -0.172304405759E+03    0.23767E-05   -0.25480E-05   352   0.243E-02
  74 F= -.17230441E+03 E0= -.17230441E+03  d E =-.495086E-02  mag=     2.0000
       N       E                     dE             d eps       ncg     rms          rms(c)
DAV:   1    -0.172297052337E+03    0.73558E-02   -0.48059E+00   352   0.716E+00    0.506E-01
DAV:   2    -0.172305728107E+03   -0.86758E-02   -0.82233E-02   424   0.914E-01    0.226E-01
DAV:   3    -0.172306252332E+03   -0.52423E-03   -0.11725E-03   392   0.145E-01    0.125E-01
DAV:   4    -0.172306199027E+03    0.53305E-04   -0.43734E-04   408   0.938E-02
  75 F= -.17230620E+03 E0= -.17230620E+03  d E =-.674413E-02  mag=     2.0000
       N       E                     dE             d eps       ncg     rms          rms(c)
DAV:   1    -0.172304917579E+03    0.13348E-02   -0.61486E-01   352   0.257E+00    0.173E-01
DAV:   2    -0.172306005457E+03   -0.10879E-02   -0.10567E-02   424   0.329E-01    0.791E-02
DAV:   3    -0.172306094610E+03   -0.89153E-04   -0.14496E-04   344   0.515E-02
  76 F= -.17230609E+03 E0= -.17230609E+03  d E =-.663972E-02  mag=     2.0000
       N       E                     dE             d eps       ncg     rms          rms(c)
DAV:   1    -0.172305861101E+03    0.14436E-03   -0.18037E-01   352   0.139E+00    0.983E-02
DAV:   2    -0.172306216698E+03   -0.35560E-03   -0.33185E-03   424   0.186E-01    0.427E-02
DAV:   3    -0.172306251052E+03   -0.34354E-04   -0.48072E-05   296   0.306E-02
  77 F= -.17230625E+03 E0= -.17230625E+03  d E =-.679616E-02  mag=     2.0000
       N       E                     dE             d eps       ncg     rms          rms(c)
DAV:   1    -0.172304897594E+03    0.13191E-02   -0.17001E+00   352   0.426E+00    0.298E-01
DAV:   2    -0.172307858520E+03   -0.29609E-02   -0.29505E-02   424   0.549E-01    0.132E-01
DAV:   3    -0.172308215410E+03   -0.35689E-03   -0.47161E-04   384   0.924E-02    0.716E-02
DAV:   4    -0.172308192554E+03    0.22856E-04   -0.14115E-04   336   0.542E-02
  78 F= -.17230819E+03 E0= -.17230819E+03  d E =-.194150E-02  mag=     2.0000
       N       E                     dE             d eps       ncg     rms          rms(c)
DAV:   1    -0.172306311768E+03    0.19036E-02   -0.13362E+00   352   0.377E+00    0.271E-01
DAV:   2    -0.172308573517E+03   -0.22617E-02   -0.22766E-02   424   0.483E-01    0.120E-01
DAV:   3    -0.172308866479E+03   -0.29296E-03   -0.37841E-04   376   0.831E-02    0.664E-02
DAV:   4    -0.172308859681E+03    0.67979E-05   -0.11664E-04   328   0.497E-02
  79 F= -.17230886E+03 E0= -.17230886E+03  d E =-.260863E-02  mag=     2.0000
       N       E                     dE             d eps       ncg     rms          rms(c)
DAV:   1    -0.172309756663E+03   -0.89018E-03   -0.23439E-01   352   0.161E+00    0.115E-01
DAV:   2    -0.172310186212E+03   -0.42955E-03   -0.44862E-03   432   0.220E-01    0.549E-02
DAV:   3    -0.172310213911E+03   -0.27700E-04   -0.70394E-05   312   0.373E-02
  80 F= -.17231021E+03 E0= -.17231021E+03  d E =-.135423E-02  mag=     2.0000
       N       E                     dE             d eps       ncg     rms          rms(c)
DAV:   1    -0.172309959599E+03    0.22661E-03   -0.42192E-01   352   0.216E+00    0.149E-01
DAV:   2    -0.172310713313E+03   -0.75371E-03   -0.78792E-03   432   0.290E-01    0.739E-02
DAV:   3    -0.172310741850E+03   -0.28537E-04   -0.12103E-04   344   0.481E-02
  81 F= -.17231074E+03 E0= -.17231074E+03  d E =-.188217E-02  mag=     2.0000
       N       E                     dE             d eps       ncg     rms          rms(c)
DAV:   1    -0.172311541544E+03   -0.82823E-03   -0.25800E-01   352   0.165E+00    0.122E-01
DAV:   2    -0.172311972116E+03   -0.43057E-03   -0.43538E-03   424   0.214E-01    0.548E-02
DAV:   3    -0.172312005819E+03   -0.33703E-04   -0.78556E-05   304   0.375E-02
  82 F= -.17231201E+03 E0= -.17231201E+03  d E =-.126397E-02  mag=     2.0000
       N       E                     dE             d eps       ncg     rms          rms(c)
DAV:   1    -0.172309208522E+03    0.27636E-02   -0.23397E+00   352   0.500E+00    0.367E-01
DAV:   2    -0.172313154181E+03   -0.39457E-02   -0.41011E-02   424   0.657E-01    0.163E-01
DAV:   3    -0.172313621980E+03   -0.46780E-03   -0.76051E-04   384   0.116E-01    0.904E-02
DAV:   4    -0.172313602989E+03    0.18991E-04   -0.21631E-04   416   0.653E-02
  83 F= -.17231360E+03 E0= -.17231360E+03  d E =-.286114E-02  mag=     2.0000
       N       E                     dE             d eps       ncg     rms          rms(c)
DAV:   1    -0.172314515659E+03   -0.89368E-03   -0.45892E-01   352   0.220E+00    0.170E-01
DAV:   2    -0.172315301189E+03   -0.78553E-03   -0.82222E-03   432   0.293E-01    0.783E-02
DAV:   3    -0.172315410890E+03   -0.10970E-03   -0.16420E-04   360   0.584E-02    0.433E-02
DAV:   4    -0.172315408842E+03    0.20473E-05   -0.51414E-05   312   0.322E-02
  84 F= -.17231541E+03 E0= -.17231541E+03  d E =-.180585E-02  mag=     2.0000
       N       E                     dE             d eps       ncg     rms          rms(c)
DAV:   1    -0.172314924998E+03    0.48589E-03   -0.55070E-01   352   0.241E+00    0.183E-01
DAV:   2    -0.172315867462E+03   -0.94246E-03   -0.98446E-03   432   0.320E-01    0.840E-02
DAV:   3    -0.172315999202E+03   -0.13174E-03   -0.19334E-04   376   0.622E-02    0.462E-02
DAV:   4    -0.172315992543E+03    0.66589E-05   -0.59289E-05   320   0.352E-02
  85 F= -.17231599E+03 E0= -.17231599E+03  d E =-.238955E-02  mag=     2.0000
       N       E                     dE             d eps       ncg     rms          rms(c)
DAV:   1    -0.172316344073E+03   -0.34487E-03   -0.63165E-01   352   0.258E+00    0.200E-01
DAV:   2    -0.172317436903E+03   -0.10928E-02   -0.11562E-02   424   0.346E-01    0.920E-02
DAV:   3    -0.172317587925E+03   -0.15102E-03   -0.23191E-04   360   0.678E-02    0.491E-02
DAV:   4    -0.172317586783E+03    0.11425E-05   -0.67053E-05   336   0.355E-02
  86 F= -.17231759E+03 E0= -.17231759E+03  d E =-.159424E-02  mag=     2.0000
       N       E                     dE             d eps       ncg     rms          rms(c)
DAV:   1    -0.172317167884E+03    0.42004E-03   -0.42480E-01   352   0.212E+00    0.166E-01
DAV:   2    -0.172317910227E+03   -0.74234E-03   -0.77685E-03   424   0.283E-01    0.772E-02
DAV:   3    -0.172318007607E+03   -0.97380E-04   -0.15489E-04   344   0.560E-02
  87 F= -.17231801E+03 E0= -.17231801E+03  d E =-.201506E-02  mag=     2.0000
       N       E                     dE             d eps       ncg     rms          rms(c)
DAV:   1    -0.172318203363E+03   -0.29314E-03   -0.86721E-01   352   0.305E+00    0.235E-01
DAV:   2    -0.172319697489E+03   -0.14941E-02   -0.15922E-02   424   0.409E-01    0.113E-01
DAV:   3    -0.172319853068E+03   -0.15558E-03   -0.29234E-04   360   0.765E-02    0.621E-02
DAV:   4    -0.172319854893E+03   -0.18249E-05   -0.11612E-04   360   0.452E-02
  88 F= -.17231985E+03 E0= -.17231985E+03  d E =-.184729E-02  mag=     2.0000
       N       E                     dE             d eps       ncg     rms          rms(c)
DAV:   1    -0.172319675990E+03    0.17708E-03   -0.22654E-01   352   0.156E+00    0.124E-01
DAV:   2    -0.172320088209E+03   -0.41222E-03   -0.42303E-03   424   0.211E-01    0.587E-02
DAV:   3    -0.172320132213E+03   -0.44003E-04   -0.76849E-05   312   0.410E-02
  89 F= -.17232013E+03 E0= -.17232013E+03  d E =-.212461E-02  mag=     2.0000
       N       E                     dE             d eps       ncg     rms          rms(c)
DAV:   1    -0.172320683485E+03   -0.59528E-03   -0.74349E-01   352   0.280E+00    0.221E-01
DAV:   2    -0.172321949506E+03   -0.12660E-02   -0.13370E-02   432   0.374E-01    0.105E-01
DAV:   3    -0.172322102754E+03   -0.15325E-03   -0.26464E-04   360   0.737E-02    0.564E-02
DAV:   4    -0.172322111685E+03   -0.89309E-05   -0.87198E-05   352   0.393E-02
  90 F= -.17232211E+03 E0= -.17232211E+03  d E =-.197947E-02  mag=     2.0000
       N       E                     dE             d eps       ncg     rms          rms(c)
DAV:   1    -0.172320140777E+03    0.19620E-02   -0.15880E+00   352   0.409E+00    0.323E-01
DAV:   2    -0.172322892112E+03   -0.27513E-02   -0.29068E-02   432   0.550E-01    0.151E-01
DAV:   3    -0.172323285720E+03   -0.39361E-03   -0.57747E-04   384   0.109E-01    0.802E-02
DAV:   4    -0.172323298701E+03   -0.12981E-04   -0.16378E-04   376   0.541E-02
  91 F= -.17232330E+03 E0= -.17232330E+03  d E =-.316649E-02  mag=     2.0000
       N       E                     dE             d eps       ncg     rms          rms(c)
DAV:   1    -0.172322780136E+03    0.50558E-03   -0.12167E+00   352   0.358E+00    0.284E-01
DAV:   2    -0.172324904284E+03   -0.21241E-02   -0.22299E-02   432   0.483E-01    0.136E-01
DAV:   3    -0.172325180455E+03   -0.27617E-03   -0.43034E-04   376   0.978E-02    0.727E-02
DAV:   4    -0.172325193259E+03   -0.12804E-04   -0.14353E-04   376   0.513E-02
  92 F= -.17232519E+03 E0= -.17232519E+03  d E =-.189456E-02  mag=     2.0000
       N       E                     dE             d eps       ncg     rms          rms(c)
DAV:   1    -0.172324978102E+03    0.20235E-03   -0.22506E-01   352   0.154E+00    0.127E-01
DAV:   2    -0.172325383056E+03   -0.40495E-03   -0.40728E-03   432   0.206E-01    0.607E-02
DAV:   3    -0.172325424390E+03   -0.41334E-04   -0.80327E-05   312   0.439E-02
  93 F= -.17232542E+03 E0= -.17232542E+03  d E =-.212569E-02  mag=     2.0000
       N       E                     dE             d eps       ncg     rms          rms(c)
DAV:   1    -0.172325439323E+03   -0.56267E-04   -0.73324E-01   352   0.279E+00    0.220E-01
DAV:   2    -0.172326700569E+03   -0.12612E-02   -0.13350E-02   424   0.377E-01    0.109E-01
DAV:   3    -0.172326808130E+03   -0.10756E-03   -0.27411E-04   360   0.767E-02    0.579E-02
DAV:   4    -0.172326816272E+03   -0.81420E-05   -0.96925E-05   368   0.421E-02
  94 F= -.17232682E+03 E0= -.17232682E+03  d E =-.139188E-02  mag=     2.0000
       N       E                     dE             d eps       ncg     rms          rms(c)
DAV:   1    -0.172326408669E+03    0.39946E-03   -0.38653E-01   352   0.202E+00    0.162E-01
DAV:   2    -0.172327103227E+03   -0.69456E-03   -0.71004E-03   424   0.274E-01    0.790E-02
DAV:   3    -0.172327161809E+03   -0.58582E-04   -0.14351E-04   352   0.571E-02
  95 F= -.17232716E+03 E0= -.17232716E+03  d E =-.173742E-02  mag=     2.0000
       N       E                     dE             d eps       ncg     rms          rms(c)
DAV:   1    -0.172327469397E+03   -0.36617E-03   -0.58042E-01   352   0.245E+00    0.199E-01
DAV:   2    -0.172328442256E+03   -0.97286E-03   -0.10301E-02   424   0.327E-01    0.993E-02
DAV:   3    -0.172328521837E+03   -0.79581E-04   -0.20067E-04   360   0.659E-02
  96 F= -.17232852E+03 E0= -.17232852E+03  d E =-.136003E-02  mag=     2.0000
       N       E                     dE             d eps       ncg     rms          rms(c)
DAV:   1    -0.172325077527E+03    0.33647E-02   -0.23503E+00   352   0.494E+00    0.395E-01
DAV:   2    -0.172328943586E+03   -0.38661E-02   -0.41885E-02   432   0.659E-01    0.195E-01
DAV:   3    -0.172329388265E+03   -0.44468E-03   -0.82148E-04   384   0.131E-01    0.103E-01
DAV:   4    -0.172329414064E+03   -0.25799E-04   -0.31686E-04   432   0.737E-02
  97 F= -.17232941E+03 E0= -.17232941E+03  d E =-.225226E-02  mag=     2.0000
       N       E                     dE             d eps       ncg     rms          rms(c)
DAV:   1    -0.172329196777E+03    0.19149E-03   -0.12497E-01   352   0.114E+00    0.795E-02
DAV:   2    -0.172329433805E+03   -0.23703E-03   -0.23209E-03   416   0.155E-01    0.360E-02
DAV:   3    -0.172329445938E+03   -0.12133E-04   -0.39223E-05   288   0.253E-02
  98 F= -.17232945E+03 E0= -.17232945E+03  d E =-.228413E-02  mag=     2.0000
       N       E                     dE             d eps       ncg     rms          rms(c)
DAV:   1    -0.172329620399E+03   -0.18659E-03   -0.59229E-01   352   0.246E+00    0.194E-01
DAV:   2    -0.172330695369E+03   -0.10750E-02   -0.10863E-02   416   0.332E-01    0.905E-02
DAV:   3    -0.172330806102E+03   -0.11073E-03   -0.20164E-04   360   0.654E-02    0.456E-02
DAV:   4    -0.172330807540E+03   -0.14377E-05   -0.56804E-05   336   0.314E-02
  99 F= -.17233081E+03 E0= -.17233081E+03  d E =-.136160E-02  mag=     2.0000
       N       E                     dE             d eps       ncg     rms          rms(c)
DAV:   1    -0.172326864273E+03    0.39418E-02   -0.26080E+00   352   0.515E+00    0.418E-01
DAV:   2    -0.172331298303E+03   -0.44340E-02   -0.47229E-02   424   0.691E-01    0.201E-01
DAV:   3    -0.172331894453E+03   -0.59615E-03   -0.93962E-04   384   0.140E-01    0.103E-01
DAV:   4    -0.172331922602E+03   -0.28149E-04   -0.29309E-04   432   0.694E-02
 100 F= -.17233192E+03 E0= -.17233192E+03  d E =-.247666E-02  mag=     2.0000
       N       E                     dE             d eps       ncg     rms          rms(c)
DAV:   1    -0.172331463672E+03    0.43078E-03   -0.88024E-01   352   0.301E+00    0.252E-01
DAV:   2    -0.172332969843E+03   -0.15062E-02   -0.15900E-02   416   0.404E-01    0.123E-01
DAV:   3    -0.172333173226E+03   -0.20338E-03   -0.31486E-04   360   0.845E-02    0.655E-02
DAV:   4    -0.172333190892E+03   -0.17666E-04   -0.10940E-04   376   0.423E-02
 101 F= -.17233319E+03 E0= -.17233319E+03  d E =-.126829E-02  mag=     2.0000
       N       E                     dE             d eps       ncg     rms          rms(c)
DAV:   1    -0.172330033877E+03    0.31393E-02   -0.18583E+00   352   0.437E+00    0.354E-01
DAV:   2    -0.172333218265E+03   -0.31844E-02   -0.33680E-02   416   0.588E-01    0.171E-01
DAV:   3    -0.172333638340E+03   -0.42008E-03   -0.64635E-04   376   0.118E-01    0.898E-02
DAV:   4    -0.172333659184E+03   -0.20843E-04   -0.21958E-04   408   0.600E-02
 102 F= -.17233366E+03 E0= -.17233366E+03  d E =-.173658E-02  mag=     2.0000
       N       E                     dE             d eps       ncg     rms          rms(c)
DAV:   1    -0.172333448310E+03    0.19003E-03   -0.13374E-01   352   0.118E+00    0.867E-02
DAV:   2    -0.172333700398E+03   -0.25209E-03   -0.24921E-03   424   0.162E-01    0.410E-02
DAV:   3    -0.172333710393E+03   -0.99947E-05   -0.48172E-05   304   0.279E-02
 103 F= -.17233371E+03 E0= -.17233371E+03  d E =-.178779E-02  mag=     2.0000
       N       E                     dE             d eps       ncg     rms          rms(c)
DAV:   1    -0.172333897684E+03   -0.19729E-03   -0.43433E-01   352   0.212E+00    0.168E-01
DAV:   2    -0.172334707374E+03   -0.80969E-03   -0.81875E-03   424   0.292E-01    0.799E-02
DAV:   3    -0.172334786096E+03   -0.78722E-04   -0.15797E-04   352   0.585E-02
 104 F= -.17233479E+03 E0= -.17233479E+03  d E =-.107570E-02  mag=     2.0000
       N       E                     dE             d eps       ncg     rms          rms(c)
DAV:   1    -0.172333100063E+03    0.16073E-02   -0.11914E+00   352   0.351E+00    0.292E-01
DAV:   2    -0.172335084772E+03   -0.19847E-02   -0.21658E-02   424   0.477E-01    0.148E-01
DAV:   3    -0.172335298027E+03   -0.21325E-03   -0.48403E-04   376   0.101E-01    0.772E-02
DAV:   4    -0.172335316155E+03   -0.18127E-04   -0.17132E-04   400   0.536E-02
 105 F= -.17233532E+03 E0= -.17233532E+03  d E =-.160576E-02  mag=     2.0000
       N       E                     dE             d eps       ncg     rms          rms(c)
DAV:   1    -0.172335238773E+03    0.59254E-04   -0.55274E-02   352   0.761E-01    0.541E-02
DAV:   2    -0.172335346502E+03   -0.10773E-03   -0.10434E-03   424   0.105E-01    0.254E-02
DAV:   3    -0.172335349679E+03   -0.31773E-05   -0.20550E-05   272   0.182E-02
 106 F= -.17233535E+03 E0= -.17233535E+03  d E =-.163929E-02  mag=     2.0000
       N       E                     dE             d eps       ncg     rms          rms(c)
DAV:   1    -0.172335299586E+03    0.46916E-04   -0.59842E-01   352   0.245E+00    0.201E-01
DAV:   2    -0.172336370089E+03   -0.10705E-02   -0.10954E-02   416   0.332E-01    0.974E-02
DAV:   3    -0.172336499596E+03   -0.12951E-03   -0.21977E-04   360   0.688E-02    0.490E-02
DAV:   4    -0.172336504383E+03   -0.47870E-05   -0.71091E-05   344   0.337E-02
 107 F= -.17233650E+03 E0= -.17233650E+03  d E =-.115470E-02  mag=     2.0000
       N       E                     dE             d eps       ncg     rms          rms(c)
DAV:   1    -0.172335275663E+03    0.12239E-02   -0.89938E-01   352   0.300E+00    0.253E-01
DAV:   2    -0.172336818353E+03   -0.15427E-02   -0.16259E-02   416   0.406E-01    0.126E-01
DAV:   3    -0.172337036077E+03   -0.21772E-03   -0.34657E-04   376   0.874E-02    0.651E-02
DAV:   4    -0.172337052512E+03   -0.16435E-04   -0.11887E-04   376   0.432E-02
 108 F= -.17233705E+03 E0= -.17233705E+03  d E =-.170283E-02  mag=     2.0000
       N       E                     dE             d eps       ncg     rms          rms(c)
DAV:   1    -0.172337321475E+03   -0.28540E-03   -0.41516E-01   352   0.202E+00    0.178E-01
DAV:   2    -0.172338026808E+03   -0.70533E-03   -0.73895E-03   416   0.270E-01    0.879E-02
DAV:   3    -0.172338136246E+03   -0.10944E-03   -0.15792E-04   360   0.597E-02    0.456E-02
DAV:   4    -0.172338148656E+03   -0.12410E-04   -0.53160E-05   304   0.283E-02
 109 F= -.17233815E+03 E0= -.17233815E+03  d E =-.109614E-02  mag=     2.0000
       N       E                     dE             d eps       ncg     rms          rms(c)
DAV:   1    -0.172332532369E+03    0.56039E-02   -0.37405E+00   352   0.607E+00    0.515E-01
DAV:   2    -0.172338955139E+03   -0.64228E-02   -0.67016E-02   408   0.812E-01    0.254E-01
DAV:   3    -0.172339823114E+03   -0.86797E-03   -0.13920E-03   384   0.170E-01    0.128E-01
DAV:   4    -0.172339889712E+03   -0.66598E-04   -0.47639E-04   440   0.834E-02
 110 F= -.17233989E+03 E0= -.17233989E+03  d E =-.283720E-02  mag=     2.0000
       N       E                     dE             d eps       ncg     rms          rms(c)
DAV:   1    -0.172340020007E+03   -0.19689E-03   -0.50908E-01   352   0.232E+00    0.204E-01
DAV:   2    -0.172340892993E+03   -0.87299E-03   -0.96207E-03   424   0.321E-01    0.105E-01
DAV:   3    -0.172341027301E+03   -0.13431E-03   -0.23130E-04   360   0.744E-02    0.569E-02
DAV:   4    -0.172341042566E+03   -0.15265E-04   -0.80125E-05   352   0.356E-02
 111 F= -.17234104E+03 E0= -.17234104E+03  d E =-.115285E-02  mag=     2.0000
       N       E                     dE             d eps       ncg     rms          rms(c)
DAV:   1    -0.172340621838E+03    0.40546E-03   -0.31046E-01   352   0.181E+00    0.151E-01
DAV:   2    -0.172341158183E+03   -0.53634E-03   -0.58253E-03   424   0.249E-01    0.760E-02
DAV:   3    -0.172341229967E+03   -0.71785E-04   -0.12497E-04   328   0.540E-02
 112 F= -.17234123E+03 E0= -.17234123E+03  d E =-.134026E-02  mag=     2.0000
       N       E                     dE             d eps       ncg     rms          rms(c)
DAV:   1    -0.172340976072E+03    0.18211E-03   -0.50499E-01   352   0.228E+00    0.195E-01
DAV:   2    -0.172341788607E+03   -0.81253E-03   -0.89745E-03   432   0.306E-01    0.102E-01
DAV:   3    -0.172341879129E+03   -0.90522E-04   -0.19430E-04   360   0.642E-02
 113 F= -.17234188E+03 E0= -.17234188E+03  d E =-.649162E-03  mag=     2.0000
       N       E                     dE             d eps       ncg     rms          rms(c)
DAV:   1    -0.172340413742E+03    0.13749E-02   -0.94278E-01   352   0.312E+00    0.268E-01
DAV:   2    -0.172341902350E+03   -0.14886E-02   -0.16742E-02   424   0.419E-01    0.141E-01
DAV:   3    -0.172342086084E+03   -0.18373E-03   -0.37969E-04   368   0.879E-02    0.720E-02
DAV:   4    -0.172342113674E+03   -0.27591E-04   -0.15860E-04   384   0.500E-02
 114 F= -.17234211E+03 E0= -.17234211E+03  d E =-.883707E-03  mag=     2.0000
       N       E                     dE             d eps       ncg     rms          rms(c)
DAV:   1    -0.172342326011E+03   -0.23993E-03   -0.29083E-01   352   0.170E+00    0.152E-01
DAV:   2    -0.172342823930E+03   -0.49792E-03   -0.51673E-03   416   0.227E-01    0.775E-02
DAV:   3    -0.172342892321E+03   -0.68391E-04   -0.10666E-04   336   0.499E-02
 115 F= -.17234289E+03 E0= -.17234289E+03  d E =-.778647E-03  mag=     2.0000
       N       E                     dE             d eps       ncg     rms          rms(c)
DAV:   1    -0.172339361642E+03    0.34623E-02   -0.26148E+00   352   0.511E+00    0.434E-01
DAV:   2    -0.172343599772E+03   -0.42381E-02   -0.45835E-02   408   0.677E-01    0.222E-01
DAV:   3    -0.172344189761E+03   -0.58999E-03   -0.95409E-04   392   0.140E-01    0.113E-01
DAV:   4    -0.172344251806E+03   -0.62044E-04   -0.37386E-04   440   0.744E-02
 116 F= -.17234425E+03 E0= -.17234425E+03  d E =-.213813E-02  mag=     2.0000
       N       E                     dE             d eps       ncg     rms          rms(c)
DAV:   1    -0.172344989634E+03   -0.79987E-03   -0.17607E-01   352   0.134E+00    0.128E-01
DAV:   2    -0.172345307093E+03   -0.31746E-03   -0.34325E-03   424   0.190E-01    0.665E-02
DAV:   3    -0.172345342803E+03   -0.35710E-04   -0.90904E-05   312   0.476E-02
 117 F= -.17234534E+03 E0= -.17234534E+03  d E =-.109100E-02  mag=     2.0000
       N       E                     dE             d eps       ncg     rms          rms(c)
DAV:   1    -0.172345113056E+03    0.19404E-03   -0.37111E-01   352   0.195E+00    0.172E-01
DAV:   2    -0.172345711107E+03   -0.59805E-03   -0.69669E-03   432   0.272E-01    0.906E-02
DAV:   3    -0.172345757043E+03   -0.45937E-04   -0.17575E-04   360   0.619E-02
 118 F= -.17234576E+03 E0= -.17234576E+03  d E =-.150524E-02  mag=     2.0000
       N       E                     dE             d eps       ncg     rms          rms(c)
DAV:   1    -0.172345778687E+03   -0.67580E-04   -0.30431E-01   352   0.176E+00    0.159E-01
DAV:   2    -0.172346259173E+03   -0.48049E-03   -0.54538E-03   424   0.239E-01    0.846E-02
DAV:   3    -0.172346287138E+03   -0.27964E-04   -0.14545E-04   368   0.534E-02
 119 F= -.17234629E+03 E0= -.17234629E+03  d E =-.530094E-03  mag=     2.0000
       N       E                     dE             d eps       ncg     rms          rms(c)
DAV:   1    -0.172346239220E+03    0.19953E-04   -0.66050E-02   352   0.817E-01    0.819E-02
DAV:   2    -0.172346330275E+03   -0.91055E-04   -0.11416E-03   440   0.113E-01    0.464E-02
DAV:   3    -0.172346334042E+03   -0.37667E-05   -0.39063E-05   296   0.271E-02
 120 F= -.17234633E+03 E0= -.17234633E+03  d E =-.576998E-03  mag=     2.0000
       N       E                     dE             d eps       ncg     rms          rms(c)
DAV:   1    -0.172346831233E+03   -0.50096E-03   -0.35823E-01   352   0.196E+00    0.153E-01
DAV:   2    -0.172347423106E+03   -0.59187E-03   -0.64984E-03   424   0.266E-01    0.819E-02
DAV:   3    -0.172347449043E+03   -0.25936E-04   -0.13250E-04   352   0.533E-02
 121 F= -.17234745E+03 E0= -.17234745E+03  d E =-.111500E-02  mag=     2.0000
       N       E                     dE             d eps       ncg     rms          rms(c)
DAV:   1    -0.172346738598E+03    0.68451E-03   -0.71407E-01   352   0.277E+00    0.218E-01
DAV:   2    -0.172347870967E+03   -0.11324E-02   -0.12737E-02   432   0.372E-01    0.118E-01
DAV:   3    -0.172347931192E+03   -0.60225E-04   -0.27023E-04   368   0.764E-02
 122 F= -.17234793E+03 E0= -.17234793E+03  d E =-.159715E-02  mag=     2.0000
       N       E                     dE             d eps       ncg     rms          rms(c)
DAV:   1    -0.172348320313E+03   -0.44935E-03   -0.30988E-01   352   0.180E+00    0.156E-01
DAV:   2    -0.172348780983E+03   -0.46067E-03   -0.53708E-03   424   0.239E-01    0.834E-02
DAV:   3    -0.172348810411E+03   -0.29428E-04   -0.13335E-04   360   0.521E-02
 123 F= -.17234881E+03 E0= -.17234881E+03  d E =-.879219E-03  mag=     2.0000
       N       E                     dE             d eps       ncg     rms          rms(c)
DAV:   1    -0.172348485304E+03    0.29568E-03   -0.37447E-01   352   0.198E+00    0.166E-01
DAV:   2    -0.172349063711E+03   -0.57841E-03   -0.65798E-03   416   0.262E-01    0.866E-02
DAV:   3    -0.172349104763E+03   -0.41052E-04   -0.14846E-04   368   0.551E-02
 124 F= -.17234910E+03 E0= -.17234910E+03  d E =-.117357E-02  mag=     2.0000
       N       E                     dE             d eps       ncg     rms          rms(c)
DAV:   1    -0.172349444033E+03   -0.38032E-03   -0.42303E-01   352   0.209E+00    0.176E-01
DAV:   2    -0.172350101453E+03   -0.65742E-03   -0.74331E-03   432   0.280E-01    0.927E-02
DAV:   3    -0.172350140141E+03   -0.38688E-04   -0.17529E-04   352   0.598E-02
 125 F= -.17235014E+03 E0= -.17235014E+03  d E =-.103538E-02  mag=     2.0000
       N       E                     dE             d eps       ncg     rms          rms(c)
DAV:   1    -0.172349918235E+03    0.18322E-03   -0.27986E-01   352   0.170E+00    0.147E-01
DAV:   2    -0.172350335900E+03   -0.41766E-03   -0.48332E-03   440   0.227E-01    0.792E-02
DAV:   3    -0.172350356278E+03   -0.20378E-04   -0.12252E-04   344   0.500E-02
 126 F= -.17235036E+03 E0= -.17235036E+03  d E =-.125152E-02  mag=     2.0000
       N       E                     dE             d eps       ncg     rms          rms(c)
DAV:   1    -0.172350661027E+03   -0.32513E-03   -0.33302E-01   352   0.185E+00    0.155E-01
DAV:   2    -0.172351181332E+03   -0.52031E-03   -0.58249E-03   424   0.248E-01    0.839E-02
DAV:   3    -0.172351212476E+03   -0.31144E-04   -0.14495E-04   352   0.542E-02
 127 F= -.17235121E+03 E0= -.17235121E+03  d E =-.856198E-03  mag=     2.0000
       N       E                     dE             d eps       ncg     rms          rms(c)
DAV:   1    -0.172350949849E+03    0.23148E-03   -0.31014E-01   352   0.178E+00    0.151E-01
DAV:   2    -0.172351426157E+03   -0.47631E-03   -0.53592E-03   424   0.237E-01    0.826E-02
DAV:   3    -0.172351452642E+03   -0.26485E-04   -0.13309E-04   360   0.522E-02
 128 F= -.17235145E+03 E0= -.17235145E+03  d E =-.109636E-02  mag=     2.0000
       N       E                     dE             d eps       ncg     rms          rms(c)
DAV:   1    -0.172351665604E+03   -0.23945E-03   -0.35513E-01   352   0.191E+00    0.159E-01
DAV:   2    -0.172352224607E+03   -0.55900E-03   -0.63383E-03   424   0.255E-01    0.831E-02
DAV:   3    -0.172352267656E+03   -0.43049E-04   -0.13777E-04   360   0.533E-02
 129 F= -.17235227E+03 E0= -.17235227E+03  d E =-.815014E-03  mag=     2.0000
       N       E                     dE             d eps       ncg     rms          rms(c)
DAV:   1    -0.172352134508E+03    0.90098E-04   -0.17115E-01   352   0.132E+00    0.114E-01
DAV:   2    -0.172352394124E+03   -0.25962E-03   -0.29867E-03   432   0.176E-01    0.613E-02
DAV:   3    -0.172352408850E+03   -0.14726E-04   -0.69742E-05   336   0.379E-02
 130 F= -.17235241E+03 E0= -.17235241E+03  d E =-.956208E-03  mag=     2.0000
       N       E                     dE             d eps       ncg     rms          rms(c)
DAV:   1    -0.172352662230E+03   -0.26811E-03   -0.42543E-01   352   0.209E+00    0.166E-01
DAV:   2    -0.172353337315E+03   -0.67509E-03   -0.74244E-03   432   0.278E-01    0.859E-02
DAV:   3    -0.172353382161E+03   -0.44846E-04   -0.15801E-04   368   0.566E-02
 131 F= -.17235338E+03 E0= -.17235338E+03  d E =-.973312E-03  mag=     2.0000
       N       E                     dE             d eps       ncg     rms          rms(c)
DAV:   1    -0.172352205478E+03    0.11318E-02   -0.10073E+00   352   0.322E+00    0.254E-01
DAV:   2    -0.172353764635E+03   -0.15592E-02   -0.17531E-02   432   0.426E-01    0.132E-01
DAV:   3    -0.172353906113E+03   -0.14148E-03   -0.36731E-04   360   0.869E-02    0.709E-02
DAV:   4    -0.172353916827E+03   -0.10714E-04   -0.14316E-04   376   0.492E-02
 132 F= -.17235392E+03 E0= -.17235392E+03  d E =-.150798E-02  mag=     2.0000
       N       E                     dE             d eps       ncg     rms          rms(c)
DAV:   1    -0.172354088771E+03   -0.18266E-03   -0.45203E-01   352   0.213E+00    0.177E-01
DAV:   2    -0.172354848367E+03   -0.75960E-03   -0.80460E-03   424   0.281E-01    0.881E-02
DAV:   3    -0.172354931621E+03   -0.83254E-04   -0.15643E-04   360   0.584E-02
 133 F= -.17235493E+03 E0= -.17235493E+03  d E =-.101479E-02  mag=     2.0000
       N       E                     dE             d eps       ncg     rms          rms(c)
DAV:   1    -0.172352507839E+03    0.23405E-02   -0.17040E+00   352   0.415E+00    0.339E-01
DAV:   2    -0.172355182250E+03   -0.26744E-02   -0.30089E-02   424   0.547E-01    0.173E-01
DAV:   3    -0.172355504571E+03   -0.32232E-03   -0.61085E-04   376   0.111E-01    0.911E-02
DAV:   4    -0.172355533371E+03   -0.28800E-04   -0.23765E-04   408   0.613E-02
 134 F= -.17235553E+03 E0= -.17235553E+03  d E =-.161654E-02  mag=     2.0000
       N       E                     dE             d eps       ncg     rms          rms(c)
DAV:   1    -0.172355378419E+03    0.12615E-03   -0.10357E-01   352   0.103E+00    0.722E-02
DAV:   2    -0.172355568123E+03   -0.18970E-03   -0.18911E-03   416   0.138E-01    0.345E-02
DAV:   3    -0.172355570743E+03   -0.26193E-05   -0.33705E-05   288   0.226E-02
 135 F= -.17235557E+03 E0= -.17235557E+03  d E =-.165392E-02  mag=     2.0000
       N       E                     dE             d eps       ncg     rms          rms(c)
DAV:   1    -0.172355853027E+03   -0.28490E-03   -0.45330E-01   352   0.213E+00    0.163E-01
DAV:   2    -0.172356641264E+03   -0.78824E-03   -0.81624E-03   416   0.280E-01    0.784E-02
DAV:   3    -0.172356720301E+03   -0.79037E-04   -0.13105E-04   352   0.527E-02
 136 F= -.17235672E+03 E0= -.17235672E+03  d E =-.114956E-02  mag=     2.0000
       N       E                     dE             d eps       ncg     rms          rms(c)
DAV:   1    -0.172354000009E+03    0.26413E-02   -0.19900E+00   352   0.446E+00    0.356E-01
DAV:   2    -0.172357124537E+03   -0.31245E-02   -0.34679E-02   424   0.580E-01    0.181E-01
DAV:   3    -0.172357507803E+03   -0.38327E-03   -0.63115E-04   376   0.115E-01    0.966E-02
DAV:   4    -0.172357532032E+03   -0.24229E-04   -0.27872E-04   416   0.651E-02
 137 F= -.17235753E+03 E0= -.17235753E+03  d E =-.196129E-02  mag=     2.0000
       N       E                     dE             d eps       ncg     rms          rms(c)
DAV:   1    -0.172357406821E+03    0.10098E-03   -0.79654E-02   352   0.898E-01    0.618E-02
DAV:   2    -0.172357552214E+03   -0.14539E-03   -0.14541E-03   416   0.120E-01    0.292E-02
DAV:   3    -0.172357555297E+03   -0.30830E-05   -0.25879E-05   272   0.193E-02
 138 F= -.17235756E+03 E0= -.17235756E+03  d E =-.198455E-02  mag=     2.0000
       N       E                     dE             d eps       ncg     rms          rms(c)
DAV:   1    -0.172357599372E+03   -0.47158E-04   -0.69207E-01   352   0.264E+00    0.202E-01
DAV:   2    -0.172358763418E+03   -0.11640E-02   -0.12283E-02   424   0.347E-01    0.985E-02
DAV:   3    -0.172358893840E+03   -0.13042E-03   -0.20724E-04   360   0.661E-02    0.515E-02
DAV:   4    -0.172358896719E+03   -0.28780E-05   -0.71124E-05   304   0.337E-02
 139 F= -.17235890E+03 E0= -.17235890E+03  d E =-.134142E-02  mag=     2.0000
       N       E                     dE             d eps       ncg     rms          rms(c)
DAV:   1    -0.172353864993E+03    0.50288E-02   -0.33866E+00   352   0.584E+00    0.457E-01
DAV:   2    -0.172359400130E+03   -0.55351E-02   -0.59561E-02   424   0.764E-01    0.229E-01
DAV:   3    -0.172360046310E+03   -0.64618E-03   -0.10575E-03   384   0.150E-01    0.121E-01
DAV:   4    -0.172360082093E+03   -0.35783E-04   -0.40552E-04   440   0.779E-02
 140 F= -.17236008E+03 E0= -.17236008E+03  d E =-.252680E-02  mag=     2.0000
       N       E                     dE             d eps       ncg     rms          rms(c)
DAV:   1    -0.172359518710E+03    0.52760E-03   -0.97459E-01   352   0.311E+00    0.264E-01
DAV:   2    -0.172361106088E+03   -0.15874E-02   -0.17290E-02   424   0.408E-01    0.131E-01
DAV:   3    -0.172361358726E+03   -0.25264E-03   -0.33547E-04   360   0.851E-02    0.703E-02
DAV:   4    -0.172361385410E+03   -0.26684E-04   -0.12228E-04   384   0.416E-02
 141 F= -.17236139E+03 E0= -.17236139E+03  d E =-.130332E-02  mag=     2.0000
       N       E                     dE             d eps       ncg     rms          rms(c)
DAV:   1    -0.172351273198E+03    0.10086E-01   -0.56996E+00   352   0.753E+00    0.615E-01
DAV:   2    -0.172361103654E+03   -0.98305E-02   -0.10307E-01   424   0.993E-01    0.304E-01
DAV:   3    -0.172361986100E+03   -0.88245E-03   -0.18955E-03   384   0.194E-01    0.158E-01
DAV:   4    -0.172362072722E+03   -0.86623E-04   -0.66550E-04   432   0.972E-02
 142 F= -.17236207E+03 E0= -.17236207E+03  d E =-.199063E-02  mag=     2.0000
       N       E                     dE             d eps       ncg     rms          rms(c)
DAV:   1    -0.172360586480E+03    0.13996E-02   -0.90466E-01   352   0.301E+00    0.225E-01
DAV:   2    -0.172362224326E+03   -0.16378E-02   -0.16330E-02   416   0.401E-01    0.110E-01
DAV:   3    -0.172362255833E+03   -0.31507E-04   -0.30341E-04   360   0.695E-02
 143 F= -.17236226E+03 E0= -.17236226E+03  d E =-.217374E-02  mag=     2.0000
       N       E                     dE             d eps       ncg     rms          rms(c)
DAV:   1    -0.172362174057E+03    0.50268E-04   -0.76650E-01   352   0.277E+00    0.208E-01
DAV:   2    -0.172363546898E+03   -0.13728E-02   -0.14076E-02   392   0.366E-01    0.955E-02
DAV:   3    -0.172363716072E+03   -0.16917E-03   -0.22004E-04   360   0.671E-02    0.489E-02
DAV:   4    -0.172363712933E+03    0.31384E-05   -0.54981E-05   320   0.291E-02
 144 F= -.17236371E+03 E0= -.17236371E+03  d E =-.145710E-02  mag=     2.0000
       N       E                     dE             d eps       ncg     rms          rms(c)
DAV:   1    -0.172353174749E+03    0.10541E-01   -0.68245E+00   352   0.824E+00    0.654E-01
DAV:   2    -0.172364905710E+03   -0.11731E-01   -0.12120E-01   400   0.108E+00    0.325E-01
DAV:   3    -0.172365755855E+03   -0.85014E-03   -0.21923E-03   392   0.210E-01    0.171E-01
DAV:   4    -0.172365818701E+03   -0.62846E-04   -0.78906E-04   448   0.106E-01
 145 F= -.17236582E+03 E0= -.17236582E+03  d E =-.356287E-02  mag=     2.0000
       N       E                     dE             d eps       ncg     rms          rms(c)
DAV:   1    -0.172365767361E+03   -0.11506E-04   -0.66156E-01   352   0.255E+00    0.229E-01
DAV:   2    -0.172366860778E+03   -0.10934E-02   -0.11657E-02   408   0.333E-01    0.116E-01
DAV:   3    -0.172367048036E+03   -0.18726E-03   -0.23810E-04   360   0.750E-02    0.635E-02
DAV:   4    -0.172367076195E+03   -0.28159E-04   -0.91536E-05   368   0.356E-02
 146 F= -.17236708E+03 E0= -.17236708E+03  d E =-.125749E-02  mag=     2.0000
       N       E                     dE             d eps       ncg     rms          rms(c)
DAV:   1    -0.172357132648E+03    0.99154E-02   -0.59730E+00   352   0.767E+00    0.628E-01
DAV:   2    -0.172367514361E+03   -0.10382E-01   -0.10703E-01   408   0.101E+00    0.317E-01
DAV:   3    -0.172368279909E+03   -0.76555E-03   -0.19852E-03   392   0.203E-01    0.164E-01
DAV:   4    -0.172368387762E+03   -0.10785E-03   -0.77015E-04   432   0.104E-01    0.868E-02
DAV:   5    -0.172368408897E+03   -0.21135E-04   -0.19716E-04   344   0.696E-02
 147 F= -.17236841E+03 E0= -.17236841E+03  d E =-.259020E-02  mag=     2.0000
       N       E                     dE             d eps       ncg     rms          rms(c)
DAV:   1    -0.172368453904E+03   -0.66143E-04   -0.32820E-01   352   0.178E+00    0.150E-01
DAV:   2    -0.172369016389E+03   -0.56248E-03   -0.56649E-03   424   0.230E-01    0.711E-02
DAV:   3    -0.172369066477E+03   -0.50088E-04   -0.98041E-05   336   0.445E-02
 148 F= -.17236907E+03 E0= -.17236907E+03  d E =-.657580E-03  mag=     2.0000
       N       E                     dE             d eps       ncg     rms          rms(c)
DAV:   1    -0.172365046766E+03    0.39696E-02   -0.29615E+00   352   0.536E+00    0.458E-01
DAV:   2    -0.172369958673E+03   -0.49119E-02   -0.52531E-02   400   0.709E-01    0.235E-01
DAV:   3    -0.172370434941E+03   -0.47627E-03   -0.11041E-03   384   0.149E-01    0.119E-01
DAV:   4    -0.172370522307E+03   -0.87366E-04   -0.41457E-04   440   0.760E-02
 149 F= -.17237052E+03 E0= -.17237052E+03  d E =-.211341E-02  mag=     2.0000
       N       E                     dE             d eps       ncg     rms          rms(c)
DAV:   1    -0.172348203406E+03    0.22232E-01   -0.11835E+01   352   0.107E+01    0.923E-01
DAV:   2    -0.172369801857E+03   -0.21598E-01   -0.21644E-01   416   0.143E+00    0.472E-01
DAV:   3    -0.172370825195E+03   -0.10233E-02   -0.42352E-03   384   0.293E-01    0.238E-01
DAV:   4    -0.172371108325E+03   -0.28313E-03   -0.16239E-03   432   0.148E-01    0.131E-01
DAV:   5    -0.172371161799E+03   -0.53473E-04   -0.38994E-04   360   0.992E-02
 150 F= -.17237116E+03 E0= -.17237116E+03  d E =-.275290E-02  mag=     2.0000
       N       E                     dE             d eps       ncg     rms          rms(c)
DAV:   1    -0.172366775668E+03    0.43327E-02   -0.24441E+00   352   0.489E+00    0.408E-01
DAV:   2    -0.172371105658E+03   -0.43300E-02   -0.43823E-02   392   0.653E-01    0.212E-01
DAV:   3    -0.172371296224E+03   -0.19057E-03   -0.91487E-04   360   0.135E-01    0.103E-01
DAV:   4    -0.172371310826E+03   -0.14603E-04   -0.33193E-04   432   0.687E-02
 151 F= -.17237131E+03 E0= -.17237131E+03  d E =-.290193E-02  mag=     2.0000
       N       E                     dE             d eps       ncg     rms          rms(c)
DAV:   1    -0.172370581954E+03    0.71427E-03   -0.16858E+00   352   0.408E+00    0.319E-01
DAV:   2    -0.172373470847E+03   -0.28889E-02   -0.30305E-02   408   0.543E-01    0.158E-01
DAV:   3    -0.172373692653E+03   -0.22181E-03   -0.54762E-04   376   0.102E-01    0.791E-02
DAV:   4    -0.172373695070E+03   -0.24175E-05   -0.18741E-04   416   0.534E-02
 152 F= -.17237370E+03 E0= -.17237370E+03  d E =-.238424E-02  mag=     2.0000
       N       E                     dE             d eps       ncg     rms          rms(c)
DAV:   1    -0.172368504038E+03    0.51886E-02   -0.39302E+00   352   0.622E+00    0.522E-01
DAV:   2    -0.172375299405E+03   -0.67954E-02   -0.70657E-02   408   0.828E-01    0.267E-01
DAV:   3    -0.172375795974E+03   -0.49657E-03   -0.13996E-03   384   0.172E-01    0.137E-01
DAV:   4    -0.172375870946E+03   -0.74973E-04   -0.52840E-04   440   0.862E-02
 153 F= -.17237587E+03 E0= -.17237587E+03  d E =-.456012E-02  mag=     2.0000
       N       E                     dE             d eps       ncg     rms          rms(c)
DAV:   1    -0.172374452333E+03    0.13436E-02   -0.97701E-01   352   0.310E+00    0.275E-01
DAV:   2    -0.172376124081E+03   -0.16717E-02   -0.17406E-02   408   0.411E-01    0.141E-01
DAV:   3    -0.172376302184E+03   -0.17810E-03   -0.36208E-04   376   0.905E-02    0.748E-02
DAV:   4    -0.172376336851E+03   -0.34667E-04   -0.13940E-04   400   0.439E-02
 154 F= -.17237634E+03 E0= -.17237634E+03  d E =-.502602E-02  mag=     2.0000
       N       E                     dE             d eps       ncg     rms          rms(c)
DAV:   1    -0.172375585116E+03    0.71707E-03   -0.14399E+00   352   0.380E+00    0.318E-01
DAV:   2    -0.172378051382E+03   -0.24663E-02   -0.26129E-02   408   0.509E-01    0.162E-01
DAV:   3    -0.172378258822E+03   -0.20744E-03   -0.54294E-04   384   0.108E-01    0.839E-02
DAV:   4    -0.172378285801E+03   -0.26979E-04   -0.18783E-04   416   0.518E-02
 155 F= -.17237829E+03 E0= -.17237829E+03  d E =-.194895E-02  mag=     2.0000
       N       E                     dE             d eps       ncg     rms          rms(c)
DAV:   1    -0.172372729544E+03    0.55293E-02   -0.36801E+00   352   0.607E+00    0.505E-01
DAV:   2    -0.172379118515E+03   -0.63890E-02   -0.67143E-02   408   0.816E-01    0.259E-01
DAV:   3    -0.172379531668E+03   -0.41315E-03   -0.13977E-03   384   0.172E-01    0.133E-01
DAV:   4    -0.172379596587E+03   -0.64919E-04   -0.49986E-04   448   0.840E-02
 156 F= -.17237960E+03 E0= -.17237960E+03  d E =-.325974E-02  mag=     2.0000
       N       E                     dE             d eps       ncg     rms          rms(c)
DAV:   1    -0.172377678392E+03    0.18533E-02   -0.18651E+00   352   0.425E+00    0.383E-01
DAV:   2    -0.172380950965E+03   -0.32726E-02   -0.34124E-02   400   0.569E-01    0.196E-01
DAV:   3    -0.172381224090E+03   -0.27313E-03   -0.72488E-04   384   0.125E-01    0.999E-02
DAV:   4    -0.172381293626E+03   -0.69536E-04   -0.27224E-04   424   0.604E-02
 157 F= -.17238129E+03 E0= -.17238129E+03  d E =-.169704E-02  mag=     2.0000
       N       E                     dE             d eps       ncg     rms          rms(c)
DAV:   1    -0.172379172046E+03    0.20520E-02   -0.13435E+00   352   0.361E+00    0.325E-01
[...]
DAV:   1    -0.172433863841E+03   -0.18942E-04   -0.18355E-02   352   0.454E-01    0.553E-02
DAV:   2    -0.172433889683E+03   -0.25842E-04   -0.35365E-04   392   0.631E-02
 319 F= -.17243389E+03 E0= -.17243389E+03  d E =-.101996E-03  mag=     2.0000
       N       E                     dE             d eps       ncg     rms          rms(c)
DAV:   1    -0.172433954562E+03   -0.90721E-04   -0.22137E-02   352   0.509E-01    0.567E-02
DAV:   2    -0.172433986389E+03   -0.31827E-04   -0.41633E-04   400   0.712E-02
 320 F= -.17243399E+03 E0= -.17243399E+03  d E =-.967061E-04  mag=     2.0000
       N       E                     dE             d eps       ncg     rms          rms(c)
DAV:   1    -0.172433952307E+03    0.22544E-05   -0.45440E-02   352   0.729E-01    0.771E-02
DAV:   2    -0.172434018311E+03   -0.66004E-04   -0.86317E-04   432   0.102E-01
 321 F= -.17243402E+03 E0= -.17243402E+03  d E =-.128628E-03  mag=     2.0000
       N       E                     dE             d eps       ncg     rms          rms(c)
DAV:   1    -0.172434064610E+03   -0.11230E-03   -0.32572E-02   352   0.603E-01    0.730E-02
DAV:   2    -0.172434110986E+03   -0.46376E-04   -0.62316E-04   424   0.839E-02
 322 F= -.17243411E+03 E0= -.17243411E+03  d E =-.926750E-04  mag=     2.0000
       N       E                     dE             d eps       ncg     rms          rms(c)
DAV:   1    -0.172434108032E+03   -0.43423E-04   -0.12898E-02   352   0.379E-01    0.527E-02
DAV:   2    -0.172434124597E+03   -0.16565E-04   -0.23701E-04   368   0.525E-02
 323 F= -.17243412E+03 E0= -.17243412E+03  d E =-.106286E-03  mag=     2.0000
       N       E                     dE             d eps       ncg     rms          rms(c)
DAV:   1    -0.172434180498E+03   -0.72465E-04   -0.26861E-02   352   0.555E-01    0.632E-02
DAV:   2    -0.172434220998E+03   -0.40500E-04   -0.51702E-04   424   0.782E-02
 324 F= -.17243422E+03 E0= -.17243422E+03  d E =-.964007E-04  mag=     2.0000
       N       E                     dE             d eps       ncg     rms          rms(c)
DAV:   1    -0.172434177605E+03    0.28923E-05   -0.45500E-02   352   0.722E-01    0.800E-02
DAV:   2    -0.172434242239E+03   -0.64634E-04   -0.86039E-04   432   0.101E-01
 325 F= -.17243424E+03 E0= -.17243424E+03  d E =-.117642E-03  mag=     2.0000
       N       E                     dE             d eps       ncg     rms          rms(c)
DAV:   1    -0.172434297740E+03   -0.12014E-03   -0.37505E-02   352   0.644E-01    0.811E-02
DAV:   2    -0.172434350816E+03   -0.53075E-04   -0.70487E-04   424   0.896E-02
 326 F= -.17243435E+03 E0= -.17243435E+03  d E =-.108577E-03  mag=     2.0000
       N       E                     dE             d eps       ncg     rms          rms(c)
DAV:   1    -0.172434314574E+03   -0.16834E-04   -0.39680E-02   352   0.662E-01    0.841E-02
DAV:   2    -0.172434369826E+03   -0.55251E-04   -0.74455E-04   440   0.921E-02
 327 F= -.17243437E+03 E0= -.17243437E+03  d E =-.127587E-03  mag=     2.0000
       N       E                     dE             d eps       ncg     rms          rms(c)
DAV:   1    -0.172434449207E+03   -0.13463E-03   -0.23715E-02   352   0.515E-01    0.697E-02
DAV:   2    -0.172434480827E+03   -0.31620E-04   -0.42478E-04   376   0.714E-02
 328 F= -.17243448E+03 E0= -.17243448E+03  d E =-.111001E-03  mag=     2.0000
       N       E                     dE             d eps       ncg     rms          rms(c)
DAV:   1    -0.172434377083E+03    0.72124E-04   -0.95384E-02   352   0.103E+00    0.120E-01
DAV:   2    -0.172434522409E+03   -0.14533E-03   -0.18326E-03   416   0.146E-01    0.674E-02
DAV:   3    -0.172434547579E+03   -0.25170E-04   -0.66159E-05   320   0.368E-02
 329 F= -.17243455E+03 E0= -.17243455E+03  d E =-.177753E-03  mag=     2.0000
       N       E                     dE             d eps       ncg     rms          rms(c)
DAV:   1    -0.172434632851E+03   -0.11044E-03   -0.28001E-02   352   0.562E-01    0.679E-02
DAV:   2    -0.172434670421E+03   -0.37569E-04   -0.56540E-04   416   0.857E-02
 330 F= -.17243467E+03 E0= -.17243467E+03  d E =-.122842E-03  mag=     2.0000
       N       E                     dE             d eps       ncg     rms          rms(c)
DAV:   1    -0.172434353876E+03    0.27898E-03   -0.17820E-01   352   0.142E+00    0.147E-01
DAV:   2    -0.172434641972E+03   -0.28810E-03   -0.34663E-03   424   0.200E-01    0.806E-02
DAV:   3    -0.172434672879E+03   -0.30907E-04   -0.94860E-05   360   0.450E-02
 331 F= -.17243467E+03 E0= -.17243467E+03  d E =-.125299E-03  mag=     2.0000
       N       E                     dE             d eps       ncg     rms          rms(c)
DAV:   1    -0.172434669782E+03   -0.27810E-04   -0.24138E-02   352   0.528E-01    0.427E-02
DAV:   2    -0.172434726443E+03   -0.56661E-04   -0.52622E-04   376   0.761E-02
 332 F= -.17243473E+03 E0= -.17243473E+03  d E =-.178864E-03  mag=     2.0000
       N       E                     dE             d eps       ncg     rms          rms(c)
DAV:   1    -0.172434771407E+03   -0.10162E-03   -0.28920E-02   352   0.574E-01    0.528E-02
DAV:   2    -0.172434830675E+03   -0.59268E-04   -0.62566E-04   400   0.839E-02
 333 F= -.17243483E+03 E0= -.17243483E+03  d E =-.104232E-03  mag=     2.0000
       N       E                     dE             d eps       ncg     rms          rms(c)
DAV:   1    -0.172434686805E+03    0.84602E-04   -0.89303E-02   352   0.101E+00    0.103E-01
DAV:   2    -0.172434827072E+03   -0.14027E-03   -0.17408E-03   424   0.141E-01    0.560E-02
DAV:   3    -0.172434843043E+03   -0.15971E-04   -0.46388E-05   288   0.316E-02
 334 F= -.17243484E+03 E0= -.17243484E+03  d E =-.116600E-03  mag=     2.0000
       N       E                     dE             d eps       ncg     rms          rms(c)
DAV:   1    -0.172434842807E+03   -0.15736E-04   -0.98319E-03   352   0.337E-01    0.271E-02
DAV:   2    -0.172434866207E+03   -0.23399E-04   -0.21770E-04   336   0.490E-02
 335 F= -.17243487E+03 E0= -.17243487E+03  d E =-.139764E-03  mag=     2.0000
       N       E                     dE             d eps       ncg     rms          rms(c)
DAV:   1    -0.172434930155E+03   -0.87348E-04   -0.13727E-02   352   0.397E-01    0.363E-02
DAV:   2    -0.172434956945E+03   -0.26790E-04   -0.28650E-04   368   0.576E-02
 336 F= -.17243496E+03 E0= -.17243496E+03  d E =-.907382E-04  mag=     2.0000
       N       E                     dE             d eps       ncg     rms          rms(c)
DAV:   1    -0.172434859576E+03    0.70579E-04   -0.81897E-02   352   0.969E-01    0.970E-02
DAV:   2    -0.172434992150E+03   -0.13257E-03   -0.16065E-03   440   0.137E-01    0.539E-02
DAV:   3    -0.172435005220E+03   -0.13070E-04   -0.44023E-05   304   0.309E-02
 337 F= -.17243501E+03 E0= -.17243501E+03  d E =-.139013E-03  mag=     2.0000
       N       E                     dE             d eps       ncg     rms          rms(c)
DAV:   1    -0.172435007611E+03   -0.15461E-04   -0.42836E-03   352   0.224E-01    0.179E-02
DAV:   2    -0.172435018994E+03   -0.11382E-04   -0.97532E-05   264   0.338E-02
 338 F= -.17243502E+03 E0= -.17243502E+03  d E =-.152787E-03  mag=     2.0000
       N       E                     dE             d eps       ncg     rms          rms(c)
DAV:   1    -0.172435063734E+03   -0.56123E-04   -0.19916E-02   352   0.471E-01    0.464E-02
DAV:   2    -0.172435101513E+03   -0.37779E-04   -0.42084E-04   368   0.681E-02
 339 F= -.17243510E+03 E0= -.17243510E+03  d E =-.825190E-04  mag=     2.0000
       N       E                     dE             d eps       ncg     rms          rms(c)
DAV:   1    -0.172435088541E+03   -0.24808E-04   -0.16938E-02   352   0.434E-01    0.497E-02
DAV:   2    -0.172435113086E+03   -0.24545E-04   -0.32654E-04   400   0.603E-02
 340 F= -.17243511E+03 E0= -.17243511E+03  d E =-.940923E-04  mag=     2.0000
       N       E                     dE             d eps       ncg     rms          rms(c)
DAV:   1    -0.172435163127E+03   -0.74585E-04   -0.19770E-02   352   0.479E-01    0.543E-02
DAV:   2    -0.172435192843E+03   -0.29716E-04   -0.36901E-04   392   0.666E-02
 341 F= -.17243519E+03 E0= -.17243519E+03  d E =-.797573E-04  mag=     2.0000
       N       E                     dE             d eps       ncg     rms          rms(c)
DAV:   1    -0.172434986016E+03    0.17711E-03   -0.15137E-01   352   0.132E+00    0.135E-01
DAV:   2    -0.172435231147E+03   -0.24513E-03   -0.29215E-03   416   0.186E-01    0.756E-02
DAV:   3    -0.172435252842E+03   -0.21695E-04   -0.81416E-05   344   0.423E-02
 342 F= -.17243525E+03 E0= -.17243525E+03  d E =-.139756E-03  mag=     2.0000
       N       E                     dE             d eps       ncg     rms          rms(c)
DAV:   1    -0.172435318248E+03   -0.87102E-04   -0.10509E-02   352   0.344E-01    0.487E-02
DAV:   2    -0.172435327320E+03   -0.90713E-05   -0.20036E-04   376   0.540E-02
 343 F= -.17243533E+03 E0= -.17243533E+03  d E =-.744779E-04  mag=     2.0000
       N       E                     dE             d eps       ncg     rms          rms(c)
DAV:   1    -0.172435220004E+03    0.98245E-04   -0.97850E-02   352   0.106E+00    0.107E-01
DAV:   2    -0.172435379755E+03   -0.15975E-03   -0.18740E-03   416   0.146E-01    0.577E-02
DAV:   3    -0.172435398384E+03   -0.18629E-04   -0.45638E-05   304   0.318E-02
 344 F= -.17243540E+03 E0= -.17243540E+03  d E =-.145542E-03  mag=     2.0000
       N       E                     dE             d eps       ncg     rms          rms(c)
DAV:   1    -0.172435482310E+03   -0.10256E-03   -0.93323E-03   352   0.331E-01    0.408E-02
DAV:   2    -0.172435493315E+03   -0.11004E-04   -0.18216E-04   344   0.516E-02
 345 F= -.17243549E+03 E0= -.17243549E+03  d E =-.949306E-04  mag=     2.0000
       N       E                     dE             d eps       ncg     rms          rms(c)
DAV:   1    -0.172435447928E+03    0.34383E-04   -0.85998E-02   352   0.101E+00    0.963E-02
DAV:   2    -0.172435587261E+03   -0.13933E-03   -0.16642E-03   432   0.141E-01    0.535E-02
DAV:   3    -0.172435598818E+03   -0.11557E-04   -0.42018E-05   304   0.308E-02
 346 F= -.17243560E+03 E0= -.17243560E+03  d E =-.200434E-03  mag=     2.0000
       N       E                     dE             d eps       ncg     rms          rms(c)
DAV:   1    -0.172435652492E+03   -0.65232E-04   -0.13283E-02   352   0.382E-01    0.469E-02
DAV:   2    -0.172435670936E+03   -0.18444E-04   -0.27750E-04   360   0.572E-02
 347 F= -.17243567E+03 E0= -.17243567E+03  d E =-.721186E-04  mag=     2.0000
       N       E                     dE             d eps       ncg     rms          rms(c)
DAV:   1    -0.172435666563E+03   -0.14071E-04   -0.65158E-03   384   0.269E-01    0.342E-02
DAV:   2    -0.172435676065E+03   -0.95020E-05   -0.12695E-04   328   0.367E-02
 348 F= -.17243568E+03 E0= -.17243568E+03  d E =-.772470E-04  mag=     2.0000
       N       E                     dE             d eps       ncg     rms          rms(c)
DAV:   1    -0.172435715032E+03   -0.48469E-04   -0.14578E-02   352   0.415E-01    0.434E-02
DAV:   2    -0.172435738997E+03   -0.23965E-04   -0.28255E-04   392   0.581E-02
 349 F= -.17243574E+03 E0= -.17243574E+03  d E =-.629321E-04  mag=     2.0000
       N       E                     dE             d eps       ncg     rms          rms(c)
DAV:   1    -0.172435676392E+03    0.38640E-04   -0.55572E-02   352   0.811E-01    0.788E-02
DAV:   2    -0.172435763340E+03   -0.86948E-04   -0.10677E-03   432   0.113E-01    0.446E-02
DAV:   3    -0.172435769366E+03   -0.60261E-05   -0.25306E-05   296   0.249E-02
 350 F= -.17243577E+03 E0= -.17243577E+03  d E =-.933011E-04  mag=     2.0000
       N       E                     dE             d eps       ncg     rms          rms(c)
DAV:   1    -0.172435825105E+03   -0.61766E-04   -0.90202E-03   352   0.321E-01    0.376E-02
DAV:   2    -0.172435836221E+03   -0.11115E-04   -0.17425E-04   376   0.477E-02
 351 F= -.17243584E+03 E0= -.17243584E+03  d E =-.668547E-04  mag=     2.0000
       N       E                     dE             d eps       ncg     rms          rms(c)
DAV:   1    -0.172435765245E+03    0.59860E-04   -0.63701E-02   352   0.856E-01    0.839E-02
DAV:   2    -0.172435869288E+03   -0.10404E-03   -0.12478E-03   424   0.118E-01    0.446E-02
DAV:   3    -0.172435879239E+03   -0.99504E-05   -0.27644E-05   288   0.253E-02
 352 F= -.17243588E+03 E0= -.17243588E+03  d E =-.109873E-03  mag=     2.0000
       N       E                     dE             d eps       ncg     rms          rms(c)
DAV:   1    -0.172435946417E+03   -0.77129E-04   -0.19579E-02   352   0.480E-01    0.495E-02
DAV:   2    -0.172435973785E+03   -0.27368E-04   -0.36810E-04   384   0.696E-02
 353 F= -.17243597E+03 E0= -.17243597E+03  d E =-.945463E-04  mag=     2.0000
       N       E                     dE             d eps       ncg     rms          rms(c)
DAV:   1    -0.172435739486E+03    0.20693E-03   -0.17888E-01   352   0.145E+00    0.133E-01
DAV:   2    -0.172436025421E+03   -0.28594E-03   -0.33534E-03   432   0.200E-01    0.744E-02
DAV:   3    -0.172436044205E+03   -0.18784E-04   -0.77806E-05   320   0.419E-02
 354 F= -.17243604E+03 E0= -.17243604E+03  d E =-.164966E-03  mag=     2.0000
       N       E                     dE             d eps       ncg     rms          rms(c)
DAV:   1    -0.172436101291E+03   -0.75870E-04   -0.43950E-02   352   0.707E-01    0.783E-02
DAV:   2    -0.172436163600E+03   -0.62309E-04   -0.86504E-04   416   0.103E-01
 355 F= -.17243616E+03 E0= -.17243616E+03  d E =-.119395E-03  mag=     2.0000
       N       E                     dE             d eps       ncg     rms          rms(c)
DAV:   1    -0.172436128349E+03   -0.27058E-04   -0.25653E-02   352   0.543E-01    0.628E-02
DAV:   2    -0.172436165138E+03   -0.36790E-04   -0.47043E-04   384   0.725E-02
 356 F= -.17243617E+03 E0= -.17243617E+03  d E =-.120933E-03  mag=     2.0000
       N       E                     dE             d eps       ncg     rms          rms(c)
DAV:   1    -0.172436213978E+03   -0.85630E-04   -0.55009E-02   352   0.808E-01    0.822E-02
DAV:   2    -0.172436301223E+03   -0.87245E-04   -0.10395E-03   416   0.112E-01    0.461E-02
DAV:   3    -0.172436310388E+03   -0.91646E-05   -0.25799E-05   288   0.250E-02
 357 F= -.17243631E+03 E0= -.17243631E+03  d E =-.145249E-03  mag=     2.0000
       N       E                     dE             d eps       ncg     rms          rms(c)
DAV:   1    -0.172436137389E+03    0.16383E-03   -0.13877E-01   352   0.128E+00    0.117E-01
DAV:   2    -0.172436362474E+03   -0.22509E-03   -0.26770E-03   416   0.182E-01    0.676E-02
DAV:   3    -0.172436367636E+03   -0.51617E-05   -0.72771E-05   352   0.386E-02
 358 F= -.17243637E+03 E0= -.17243637E+03  d E =-.202497E-03  mag=     2.0000
       N       E                     dE             d eps       ncg     rms          rms(c)
DAV:   1    -0.172436422990E+03   -0.60516E-04   -0.71659E-02   352   0.907E-01    0.937E-02
DAV:   2    -0.172436529827E+03   -0.10684E-03   -0.14149E-03   424   0.130E-01    0.534E-02
DAV:   3    -0.172436534718E+03   -0.48910E-05   -0.46334E-05   320   0.294E-02
 359 F= -.17243653E+03 E0= -.17243653E+03  d E =-.167082E-03  mag=     2.0000
       N       E                     dE             d eps       ncg     rms          rms(c)
DAV:   1    -0.172436532449E+03   -0.26224E-05   -0.15233E-02   352   0.418E-01    0.481E-02
DAV:   2    -0.172436550979E+03   -0.18530E-04   -0.29205E-04   400   0.614E-02
 360 F= -.17243655E+03 E0= -.17243655E+03  d E =-.183343E-03  mag=     2.0000
       N       E                     dE             d eps       ncg     rms          rms(c)
DAV:   1    -0.172436637267E+03   -0.10482E-03   -0.41011E-02   352   0.693E-01    0.675E-02
DAV:   2    -0.172436701972E+03   -0.64705E-04   -0.77640E-04   416   0.949E-02
 361 F= -.17243670E+03 E0= -.17243670E+03  d E =-.150993E-03  mag=     2.0000
       N       E                     dE             d eps       ncg     rms          rms(c)
DAV:   1    -0.172436685635E+03   -0.48368E-04   -0.39875E-02   352   0.683E-01    0.738E-02
DAV:   2    -0.172436739973E+03   -0.54338E-04   -0.73721E-04   432   0.940E-02
 362 F= -.17243674E+03 E0= -.17243674E+03  d E =-.188994E-03  mag=     2.0000
       N       E                     dE             d eps       ncg     rms          rms(c)
DAV:   1    -0.172436779965E+03   -0.94330E-04   -0.29225E-02   352   0.563E-01    0.727E-02
DAV:   2    -0.172436824835E+03   -0.44871E-04   -0.59066E-04   400   0.790E-02
 363 F= -.17243682E+03 E0= -.17243682E+03  d E =-.848622E-04  mag=     2.0000
       N       E                     dE             d eps       ncg     rms          rms(c)
DAV:   1    -0.172436833906E+03   -0.53941E-04   -0.83034E-04   384   0.955E-02    0.283E-02
DAV:   2    -0.172436836834E+03   -0.29279E-05   -0.16094E-05   224   0.143E-02
 364 F= -.17243684E+03 E0= -.17243684E+03  d E =-.968605E-04  mag=     2.0000
       N       E                     dE             d eps       ncg     rms          rms(c)
DAV:   1    -0.172436872178E+03   -0.38272E-04   -0.24857E-02   352   0.544E-01    0.531E-02
DAV:   2    -0.172436916432E+03   -0.44255E-04   -0.51119E-04   424   0.780E-02
 365 F= -.17243692E+03 E0= -.17243692E+03  d E =-.795988E-04  mag=     2.0000
       N       E                     dE             d eps       ncg     rms          rms(c)
DAV:   1    -0.172436918561E+03   -0.46383E-04   -0.40912E-03   352   0.220E-01    0.310E-02
DAV:   2    -0.172436922300E+03   -0.37394E-05   -0.68392E-05   232   0.299E-02
 366 F= -.17243692E+03 E0= -.17243692E+03  d E =-.854669E-04  mag=     2.0000
       N       E                     dE             d eps       ncg     rms          rms(c)
DAV:   1    -0.172436946762E+03   -0.28201E-04   -0.18618E-02   352   0.457E-01    0.482E-02
DAV:   2    -0.172436979650E+03   -0.32889E-04   -0.40965E-04   400   0.658E-02
 367 F= -.17243698E+03 E0= -.17243698E+03  d E =-.573499E-04  mag=     2.0000
       N       E                     dE             d eps       ncg     rms          rms(c)
DAV:   1    -0.172436982861E+03   -0.36099E-04   -0.24632E-04   360   0.532E-02    0.167E-02
DAV:   2    -0.172436983271E+03   -0.41083E-06   -0.67744E-06   224   0.962E-03
 368 F= -.17243698E+03 E0= -.17243698E+03  d E =-.609710E-04  mag=     2.0000
       N       E                     dE             d eps       ncg     rms          rms(c)
DAV:   1    -0.172437007465E+03   -0.24605E-04   -0.17040E-02   352   0.446E-01    0.388E-02
DAV:   2    -0.172437037743E+03   -0.30278E-04   -0.35749E-04   392   0.631E-02
 369 F= -.17243704E+03 E0= -.17243704E+03  d E =-.544716E-04  mag=     2.0000
       N       E                     dE             d eps       ncg     rms          rms(c)
DAV:   1    -0.172437039000E+03   -0.31534E-04   -0.87003E-04   384   0.101E-01    0.176E-02
DAV:   2    -0.172437039102E+03   -0.10236E-06   -0.14254E-05   224   0.137E-02
 370 F= -.17243704E+03 E0= -.17243704E+03  d E =-.558305E-04  mag=     2.0000
       N       E                     dE             d eps       ncg     rms          rms(c)
DAV:   1    -0.172437070835E+03   -0.31836E-04   -0.10198E-02   352   0.338E-01    0.344E-02
DAV:   2    -0.172437089228E+03   -0.18393E-04   -0.22349E-04   368   0.488E-02
 371 F= -.17243709E+03 E0= -.17243709E+03  d E =-.501262E-04  mag=     2.0000
       N       E                     dE             d eps       ncg     rms          rms(c)
DAV:   1    -0.172437091844E+03   -0.21009E-04   -0.75850E-04   384   0.921E-02    0.157E-02
DAV:   2    -0.172437092560E+03   -0.71556E-06   -0.14234E-05   200   0.130E-02
 372 F= -.17243709E+03 E0= -.17243709E+03  d E =-.534578E-04  mag=     2.0000
       N       E                     dE             d eps       ncg     rms          rms(c)
DAV:   1    -0.172437125711E+03   -0.33867E-04   -0.71144E-03   352   0.288E-01    0.267E-02
DAV:   2    -0.172437137418E+03   -0.11707E-04   -0.14476E-04   320   0.409E-02
 373 F= -.17243714E+03 E0= -.17243714E+03  d E =-.448585E-04  mag=     2.0000
