    4    4    1    2
  0.3333385E+03  0.9223323E-09  0.9266297E-09  0.1560317E-08  0.5000000E-15
  1.000000000000000E-004
  CAR 
 unknown system                          
     29      8     20
 
  0.1250000E+00  0.1250000E+00  0.8673617E-18  0.1250000E+00
    1      -20.424161    -20.429153
    2      -20.209368    -20.214877
    3      -20.199960    -20.208227
    4      -10.153615    -10.034574
    5      -10.141373    -10.024616
    6      -10.061711     -9.955993
    7       -8.927549     -8.841170
    8       -8.925979     -8.838046
    9       -8.302263     -8.172180
   10       -8.205191     -8.168977
   11       -8.198270     -8.159739
   12       -7.691809     -7.741095
   13       -6.217261     -5.069370
   14       -5.369213     -5.062686
   15       -5.366379     -4.772362
   16       -4.485942     -4.228262
   17       -4.477929     -4.218549
   18       -0.976106     -0.719974
   19        0.198394      0.382133
   20        0.605204      0.694950
 
  0.3750000E+00  0.1250000E+00  0.1734723E-17  0.1250000E+00
    1      -20.423908    -20.428896
    2      -20.209207    -20.214720
    3      -20.200400    -20.208668
    4      -10.152937    -10.033971
    5      -10.147490    -10.030930
    6      -10.056838     -9.950830
    7       -8.928681     -8.840209
    8       -8.922976     -8.836202
    9       -8.299673     -8.170572
   10       -8.201224     -8.168718
   11       -8.199739     -8.157774
   12       -7.696317     -7.745570
   13       -6.216405     -5.066057
   14       -5.369588     -5.064906
   15       -5.365430     -4.771362
   16       -4.499219     -4.240638
   17       -4.483267     -4.225459
   18       -0.894772     -0.585003
   19        0.276133      0.344795
   20        0.531360      0.603284
 
 -0.3750000E+00  0.1250000E+00 -0.1734723E-17  0.1250000E+00
    1      -20.423911    -20.428899
    2      -20.209208    -20.214720
    3      -20.200401    -20.208669
    4      -10.152948    -10.033993
    5      -10.147483    -10.030912
    6      -10.056839     -9.950832
    7       -8.928687     -8.840222
    8       -8.922970     -8.836189
    9       -8.299677     -8.170575
   10       -8.201224     -8.168721
   11       -8.199739     -8.157772
   12       -7.696318     -7.745571
   13       -6.216405     -5.066072
   14       -5.369603     -5.064890
   15       -5.365415     -4.771362
   16       -4.499222     -4.240644
   17       -4.483269     -4.225457
   18       -0.894771     -0.585013
   19        0.275966      0.344743
   20        0.531660      0.603424
 
 -0.1250000E+00  0.1250000E+00  0.3252607E-18  0.1250000E+00
    1      -20.424161    -20.429153
    2      -20.209368    -20.214877
    3      -20.199959    -20.208226
    4      -10.153619    -10.034580
    5      -10.141366    -10.024607
    6      -10.061711     -9.955994
    7       -8.927569     -8.841186
    8       -8.925957     -8.838028
    9       -8.302262     -8.172186
   10       -8.205191     -8.168974
   11       -8.198268     -8.159732
   12       -7.691808     -7.741093
   13       -6.217261     -5.069372
   14       -5.369234     -5.062681
   15       -5.366356     -4.772362
   16       -4.485940     -4.228267
   17       -4.477932     -4.218546
   18       -0.976102     -0.719980
   19        0.198379      0.382111
   20        0.706265      0.694857
 
  0.1250000E+00  0.3750000E+00  0.8673617E-18  0.1250000E+00
    1      -20.424080    -20.429071
    2      -20.209457    -20.214967
    3      -20.199956    -20.208223
    4      -10.155824    -10.036937
    5      -10.141247    -10.024490
    6      -10.060966     -9.955203
    7       -8.927922     -8.839817
    8       -8.924589     -8.838034
    9       -8.301745     -8.171916
   10       -8.203837     -8.169637
   11       -8.199145     -8.158735
   12       -7.689775     -7.739068
   13       -6.216971     -5.068798
   14       -5.368575     -5.063528
   15       -5.366645     -4.772090
   16       -4.494186     -4.235818
   17       -4.478037     -4.218515
   18       -0.899146     -0.588950
   19        0.258147      0.323873
   20        0.536255      0.612313
 
  0.3750000E+00  0.3750000E+00  0.3469447E-17  0.1250000E+00
    1      -20.423830    -20.428817
    2      -20.209302    -20.214815
    3      -20.200403    -20.208671
    4      -10.155121    -10.036183
    5      -10.147407    -10.030983
    6      -10.056077     -9.950010
    7       -8.929292     -8.840981
    8       -8.921374     -8.834097
    9       -8.299139     -8.171257
   10       -8.200640     -8.168353
   11       -8.199872     -8.156852
   12       -7.694281     -7.743539
   13       -6.216119     -5.066070
   14       -5.370176     -5.065163
   15       -5.364464     -4.771101
   16       -4.499139     -4.240431
   17       -4.491394     -4.232820
   18       -0.829538     -0.467034
   19        0.382907      0.433318
   20        0.576373      0.577585
 
 -0.3750000E+00  0.3750000E+00 -0.2005774E-17  0.1250000E+00
    1      -20.423829    -20.428817
    2      -20.209301    -20.214814
    3      -20.200403    -20.208671
    4      -10.155126    -10.036194
    5      -10.147401    -10.030971
    6      -10.056077     -9.950011
    7       -8.929296     -8.840988
    8       -8.921369     -8.834089
    9       -8.299140     -8.171257
   10       -8.200641     -8.168358
   11       -8.199868     -8.156845
   12       -7.694280     -7.743539
   13       -6.216120     -5.066088
   14       -5.370186     -5.065143
   15       -5.364452     -4.771101
   16       -4.499146     -4.240446
   17       -4.491388     -4.232806
   18       -0.829536     -0.467045
   19        0.382538      0.432672
   20        0.575978      0.580971
 
 -0.1250000E+00  0.3750000E+00  0.2168404E-17  0.1250000E+00
    1      -20.424082    -20.429074
    2      -20.209459    -20.214969
    3      -20.199956    -20.208223
    4      -10.155829    -10.036943
    5      -10.141244    -10.024485
    6      -10.060968     -9.955205
    7       -8.927934     -8.839846
    8       -8.924578     -8.838006
    9       -8.301749     -8.171922
   10       -8.203839     -8.169638
   11       -8.199145     -8.158733
   12       -7.689776     -7.739068
   13       -6.216972     -5.068803
   14       -5.368608     -5.063525
   15       -5.366614     -4.772091
   16       -4.494188     -4.235824
   17       -4.478038     -4.218513
   18       -0.899144     -0.588958
   19        0.258073      0.323889
   20        0.536263      0.612503
