       N       E                     dE             d eps       ncg     rms          rms(c)
DAV:   1     0.204420173969E+03    0.20442E+03   -0.64182E+03   784   0.697E+02
DAV:   2     0.412567557896E+02   -0.16316E+03   -0.15881E+03  1064   0.132E+02
DAV:   3    -0.124208463434E+02   -0.53678E+02   -0.53009E+02   896   0.853E+01
DAV:   4    -0.151059668349E+02   -0.26851E+01   -0.25143E+01   684   0.223E+01
DAV:   5    -0.151704073233E+02   -0.64440E-01   -0.64069E-01   740   0.342E+00    0.189E+01
RMM:   6    -0.971602283635E+01    0.54544E+01   -0.12194E+01   702   0.165E+01    0.960E+00
RMM:   7    -0.109990626995E+02   -0.12830E+01   -0.22362E+00   702   0.771E+00    0.672E+00
RMM:   8    -0.123893137784E+02   -0.13903E+01   -0.95225E-01   710   0.467E+00    0.245E+00
RMM:   9    -0.130250692413E+02   -0.63576E+00   -0.17744E-01   692   0.189E+00    0.175E+00
RMM:  10    -0.136452824437E+02   -0.62021E+00   -0.15480E-01   676   0.175E+00    0.985E-01
RMM:  11    -0.139800864569E+02   -0.33480E+00   -0.10122E-01   674   0.135E+00    0.344E-01
RMM:  12    -0.141055364828E+02   -0.12545E+00   -0.29668E-02   667   0.756E-01    0.163E-01
RMM:  13    -0.141698050690E+02   -0.64269E-01   -0.11718E-02   627   0.426E-01    0.110E-01
RMM:  14    -0.142592005970E+02   -0.89396E-01   -0.14505E-02   645   0.437E-01    0.737E-02
RMM:  15    -0.142781751068E+02   -0.18975E-01   -0.43514E-03   644   0.209E-01    0.472E-02
RMM:  16    -0.142810408704E+02   -0.28658E-02   -0.14466E-03   592   0.129E-01    0.389E-02
RMM:  17    -0.142816805571E+02   -0.63969E-03   -0.15633E-04   448   0.600E-02    0.371E-02
RMM:  18    -0.142821365143E+02   -0.45596E-03   -0.11045E-04   439   0.476E-02    0.363E-02
RMM:  19    -0.142824793207E+02   -0.34281E-03   -0.78656E-05   433   0.430E-02    0.390E-02
RMM:  20    -0.142821499266E+02    0.32939E-03   -0.74977E-05   380   0.536E-02    0.233E-02
RMM:  21    -0.142823926895E+02   -0.24276E-03   -0.59531E-05   377   0.396E-02    0.170E-02
RMM:  22    -0.142825246463E+02   -0.13196E-03   -0.17237E-05   280   0.233E-02
   1 F= -.14282525E+02 E0= -.14287062E+02  d E =0.136121E-01  mag=     0.9867
